/*--------------------------------*- C++ -*----------------------------------*\
  =========                 |
  \\      /  F ield         | OpenFOAM: The Open Source CFD Toolbox
   \\    /   O peration     | Website:  https://openfoam.org
    \\  /    A nd           | Version:  9
     \\/     M anipulation  |
\*---------------------------------------------------------------------------*/
FoamFile
{
    format      ascii;
    class       volScalarField;
    location    "0.4";
    object      p;
}
// * * * * * * * * * * * * * * * * * * * * * * * * * * * * * * * * * * * * * //

dimensions      [0 2 -2 0 0 0 0];

internalField   nonuniform List<scalar> 
97292
(
4.61887
0.921781
5.49867
5.0416
5.47791
0.193879
4.54109
0.287029
1.75103
4.49429
4.33205
4.28152
4.5822
4.48682
5.02426
5.53843
0.186186
1.69351
3.74549
5.50898
1.39688
1.03052
0.446863
0.162877
1.00835
1.21517
0.54146
0.168453
1.40047
0.387466
1.71402
1.4878
0.509899
3.43635
4.28835
2.1857
1.51768
1.51061
1.51138
2.23696
0.169933
0.706613
1.58432
5.80572
1.31223
3.48861
3.53449
1.09347
0.894208
0.18187
5.25936
2.86728
1.64647
5.23737
3.93461
4.0909
1.67216
1.388
4.99231
3.82924
5.05775
4.18082
0.126259
0.925287
5.24204
3.72021
5.03728
4.69854
0.876499
1.39636
0.991667
5.19334
3.11869
4.55631
1.35892
4.92013
3.43802
0.936796
0.952652
4.30673
0.36714
4.19089
4.78281
0.715434
4.2847
4.23276
1.56102
0.565163
4.29829
1.85384
1.35682
5.09137
1.50935
1.62733
0.303199
1.24251
5.86005
4.189
1.37637
4.16226
2.88247
1.57893
4.19654
1.57049
0.642333
1.69781
1.1847
3.21008
4.80537
1.47187
4.23575
4.41427
0.903329
2.88502
5.62798
4.79834
0.325413
5.06409
0.760148
2.79754
0.289446
5.79771
0.83087
1.51959
5.17359
1.63581
1.51053
5.02091
2.77059
1.62866
2.07793
0.923156
1.03936
0.241799
4.13456
5.95566
0.966544
3.80805
1.67309
1.48453
5.27356
0.731748
4.59979
2.42522
4.82033
2.5106
4.26223
1.08877
3.96868
0.284126
4.41799
5.03309
5.66961
4.23034
4.99799
1.70133
4.16944
0.426649
0.419028
1.70996
4.66876
0.516202
0.960983
1.36868
1.76832
5.54105
5.79506
1.3634
5.15743
1.70835
4.11832
2.23662
4.5397
2.82127
1.07411
4.08393
3.19598
3.88638
0.792351
2.23549
4.91338
3.12972
1.35121
0.486037
5.58038
5.07194
1.3485
4.6819
5.59227
4.41424
2.9258
5.13072
0.67345
1.68372
5.67295
1.52982
0.855167
0.360334
5.77526
4.28602
3.9117
1.02041
5.50377
5.29086
5.44731
5.32053
2.80851
6.00643
4.32699
2.95379
1.18634
1.24247
0.363797
4.98178
1.75134
5.71234
0.976154
2.57058
0.602927
0.612461
1.39777
0.0309471
0.748372
4.16468
3.60864
0.736522
5.64548
4.47344
0.15467
3.51687
0.573324
4.77542
5.60596
4.0262
4.16527
1.20247
1.57384
1.32306
1.31378
1.74701
4.72883
5.19059
5.52972
0.108574
5.34796
3.55087
4.01797
4.72247
1.67251
4.49146
5.23365
0.381493
1.65341
5.00333
4.60374
4.40413
0.248624
1.65801
2.69107
0.878375
5.16332
0.524749
0.596794
4.15114
1.47533
5.25175
5.17724
4.54021
5.36324
5.55144
0.769065
1.72684
0.783828
4.53616
5.39731
4.19194
3.21203
4.60506
0.0436126
2.86576
3.01472
1.55422
0.85291
1.6529
1.62441
0.564846
0.605919
0.639962
0.870836
0.0254402
0.0471726
3.9865
1.31548
1.65662
3.09411
4.96284
5.53876
4.96147
5.43942
1.62754
3.99356
5.15533
1.30313
4.51056
0.211717
4.01807
0.476257
1.33384
0.979753
1.56351
0.112528
1.2825
1.54859
1.39459
3.09158
1.22408
2.867
0.988323
1.69466
0.861821
3.89107
3.13847
1.39246
4.35374
5.88986
5.10881
4.48911
3.0145
2.96758
5.25756
4.93212
4.59632
4.53501
5.68672
1.47926
0.480998
0.801174
4.55308
5.20284
1.25538
0.0838465
0.232219
1.65465
0.436199
5.10634
0.484728
0.400806
0.530921
5.21081
5.06692
4.51945
6.00925
1.26752
5.24035
0.0277514
1.17991
4.60257
1.15347
6.00406
5.69653
5.65816
1.0887
1.05535
5.4416
5.09168
4.98969
4.27515
5.00538
1.20832
4.34532
3.54781
0.456636
2.9112
0.490793
1.30741
4.37173
3.71469
1.41008
5.00362
4.47798
1.54183
0.223321
4.11967
2.76295
1.09051
1.49233
4.6162
5.53286
5.0353
1.41511
0.808922
1.49053
4.50231
0.375658
0.250517
5.13168
1.50882
0.264748
4.78113
4.77172
0.295405
4.99021
4.23942
1.59455
1.57662
1.19458
0.0438251
4.21731
0.225471
0.595364
1.54799
2.0693
2.03616
1.70489
5.56863
0.883701
3.68441
5.51317
5.51464
1.56074
1.50594
0.32031
4.49863
4.40817
5.13128
4.90773
1.6336
2.33384
4.33609
4.493
1.65784
2.04545
2.3334
5.74361
5.6964
1.63999
0.548719
1.54517
0.945787
0.907045
0.340323
3.66035
4.43335
5.35712
4.18158
2.98132
1.54508
5.07688
5.84922
3.95456
1.46029
5.40189
3.19722
2.22332
3.50206
0.580391
5.06577
3.55469
0.344314
0.223992
0.178043
4.4881
1.03239
1.51708
1.00927
5.09333
4.90309
2.58134
1.52744
1.48765
0.984384
4.23001
0.248174
5.10058
5.4014
1.50182
5.11853
5.12459
0.538413
3.1975
4.98594
5.39135
3.42085
2.93071
0.204269
5.9052
0.593401
5.121
0.170222
0.917316
3.30388
1.16123
3.01166
5.65443
0.519891
4.93743
1.66077
0.521989
4.50701
0.257979
1.02564
4.82864
4.52368
1.69304
1.41206
1.6928
1.62853
4.92988
4.73353
3.25511
0.889477
1.21536
5.71471
1.05173
1.5455
0.664992
5.54862
-0.000697351
1.25023
4.23412
1.05795
5.38028
0.700623
0.549601
0.858677
5.67884
3.96935
0.115538
1.67315
1.47863
0.627899
0.315913
0.619841
0.513215
0.473997
5.63688
1.52388
1.60411
1.56632
4.05599
5.05596
0.463543
4.57927
3.33168
4.57003
5.14097
0.688307
3.93199
1.7601
1.08719
1.5639
4.25627
5.08044
1.01194
5.40523
4.03478
1.18808
5.59853
5.31586
1.4326
4.28081
1.03651
4.93199
4.30088
0.885745
4.25728
0.300871
1.37271
0.81188
1.27177
1.37492
1.43673
0.185629
1.54262
0.867896
1.61744
1.56869
2.51183
1.80742
1.01451
5.52161
0.436261
1.29654
1.3342
1.38301
0.386645
0.41118
3.24548
5.36994
1.15716
0.174994
5.37904
1.55388
2.53948
1.50525
3.52334
2.60949
3.88936
1.525
4.23204
4.22218
5.78063
2.14832
3.80096
2.89141
0.680886
1.08345
0.4653
5.60122
4.4313
5.72321
1.52756
4.38608
4.47227
1.43057
4.67823
5.67225
4.51485
3.25399
1.25827
4.53099
4.97786
1.5904
1.02359
1.40171
1.03461
5.06552
4.51536
1.27948
4.08174
4.44535
1.57296
3.26969
0.222072
0.534002
1.57628
4.00239
5.64675
4.46082
1.51643
1.05456
4.7756
4.34999
4.99422
4.66521
1.06032
0.568558
3.91942
5.58687
1.44819
0.13455
1.47329
4.80724
4.13931
4.44957
0.323995
2.77865
0.334886
0.819096
0.884052
5.1321
1.59095
5.50534
1.41657
5.68374
4.24724
1.22172
3.38169
1.24142
3.89508
4.71071
5.03559
5.042
2.85923
1.08717
0.755344
0.360916
0.748744
0.302971
4.84472
4.11514
0.0670639
4.61653
1.48222
1.5671
5.68712
5.64286
2.71326
1.45058
4.95674
0.61001
4.97062
1.80159
4.31976
4.74933
0.864403
0.809942
3.89746
0.811403
1.65698
3.40876
5.33007
5.28832
5.24071
1.63616
1.22087
3.50576
1.44133
1.47852
5.26745
4.168
1.65472
-0.00312229
3.72069
1.64079
3.29715
0.573133
1.56526
5.11071
0.350766
4.32358
0.722596
0.456927
4.96425
0.818071
3.09846
1.49424
5.26927
5.22228
5.39075
1.58281
5.07925
1.591
5.08907
1.46423
5.19476
4.51265
5.18452
0.794304
1.47613
3.98748
3.29243
2.69094
5.51573
0.534661
5.10973
5.71611
0.0963232
4.39092
4.67346
1.76105
0.787181
5.056
1.39452
4.74006
5.15811
0.395366
1.42908
5.59977
4.3766
5.59156
5.30803
0.806796
5.65006
3.46156
5.52088
5.36599
0.9448
3.43297
3.98122
0.283189
5.71588
0.526143
4.75237
5.79293
1.63344
2.81297
5.64996
4.55244
3.2424
0.754755
4.16248
1.56422
0.519859
5.80035
2.4458
0.952351
1.12999
0.423065
0.461538
0.476922
4.1427
4.94372
2.44956
4.78297
4.35301
4.95432
1.67029
4.89341
4.04585
3.09006
1.66691
4.13564
0.733533
4.33112
0.909703
1.66802
2.4599
0.394662
0.757547
0.0139041
0.837715
5.01314
1.2401
4.17018
1.19353
4.11532
5.51025
1.28662
1.58315
4.53829
4.66667
2.12494
4.55753
5.58235
2.08839
1.59138
1.61793
4.84812
4.47474
1.64819
1.15311
1.17139
2.80874
1.65455
0.744577
4.95141
3.70203
1.59232
1.46625
1.29317
4.16791
2.93975
0.0915701
4.54281
3.16302
1.24919
1.65745
0.0228079
5.55401
2.40827
5.54795
5.54034
5.55417
0.92167
1.74849
2.46517
1.36614
4.48492
5.08323
2.58702
0.873309
4.76968
0.409091
3.23368
5.40547
0.976332
2.06127
1.22875
4.95625
1.11992
2.51549
1.1024
1.77847
2.05137
1.24282
0.990224
0.539168
4.49934
4.49514
1.36406
1.12908
5.26486
1.17341
4.34662
5.65451
4.3541
5.67201
4.98768
5.03692
5.26781
5.63392
0.912641
1.01885
5.66126
0.617223
5.41491
1.28941
1.37073
4.22586
1.63313
1.65615
4.16539
5.27767
3.19755
0.792681
4.53632
4.05177
2.36391
0.78495
0.93425
1.47524
2.80845
4.88922
4.60693
5.62711
4.11009
4.85156
4.66416
5.05107
3.95681
0.304774
5.18156
5.12366
1.5354
2.28271
1.53463
4.67959
3.23073
5.28204
4.66009
1.62859
4.65448
0.80374
1.26934
5.07608
0.655673
2.52669
0.651898
3.05
4.56041
2.59648
1.29731
1.60173
3.25175
0.606809
5.37249
0.226787
1.29119
1.6306
4.52875
5.7617
1.27706
4.93094
3.17836
1.22967
1.32426
5.83252
2.21195
4.97274
1.65245
2.77456
2.94993
3.81397
5.59403
3.87256
0.741622
2.52637
5.73235
1.64283
0.96404
4.47488
1.65548
5.54188
1.71174
1.82654
1.0004
4.46343
3.07689
5.08424
1.57011
1.49998
3.80209
5.29763
4.6626
4.50748
3.79968
5.09689
5.16836
2.36291
1.82198
1.45038
4.5829
3.0776
5.39689
1.63945
0.666098
4.42139
4.27976
3.05137
4.36056
4.29739
0.0400292
4.53523
5.51795
4.30957
4.30495
4.64328
4.32393
4.7236
4.43821
1.40462
5.08851
4.63707
1.41516
1.23207
2.37654
0.338324
3.80558
0.0808442
4.03062
0.392873
1.72428
0.469167
1.6755
4.94751
0.459922
5.24716
0.813718
4.32473
0.530253
0.582037
4.9194
3.55434
2.65328
5.60985
1.33052
1.10851
4.82344
0.132058
4.52694
4.32678
1.15874
3.80585
1.41036
2.94489
3.15308
4.88999
5.38088
5.53245
3.38481
0.639771
3.35045
4.45476
1.62466
0.163022
4.3216
0.326987
3.26561
4.22345
2.9755
3.89986
4.16578
4.54795
5.62855
5.50118
0.577403
5.54463
1.42044
3.88007
5.74264
5.7097
3.80574
3.35602
5.55309
0.771993
2.28313
0.263161
3.91499
3.15238
1.64423
0.809152
0.266409
4.34354
0.993902
2.87553
0.305291
3.97215
5.30775
5.51848
0.259902
0.735738
5.29196
1.6661
5.56053
4.67072
4.8914
1.49281
-1.48851
4.58222
2.3606
3.27749
4.66742
0.0956605
1.11548
4.56867
1.60891
1.19201
5.65639
3.26928
4.90682
4.53423
5.66592
2.52428
1.26114
1.59706
3.03054
1.61016
4.36531
0.957757
1.45436
0.0079791
3.82869
5.05729
5.24791
1.93965
3.19615
4.45141
4.4824
5.52091
4.32051
0.483747
0.480571
3.84223
0.929013
5.02608
1.29687
5.35004
4.09718
0.0818227
3.64826
5.59029
4.98606
3.68542
0.704541
0.941433
4.62305
0.508142
5.72377
0.822564
2.7271
5.31665
3.37769
1.32806
4.72079
5.07531
1.16521
5.36062
2.7935
1.46142
5.67847
0.693517
4.8543
5.31547
0.384691
3.98391
4.60119
1.62998
2.20493
1.45649
0.0336932
2.67351
1.45136
2.23542
3.88348
2.33987
2.16936
1.27259
4.98239
5.30667
0.0818801
5.19204
0.947021
0.925587
5.05286
0.643423
1.0579
1.52177
1.64655
3.06778
4.9173
5.11892
1.48358
4.68206
4.46209
1.07947
5.56609
1.19642
1.6331
2.45782
4.77575
0.535285
5.5914
0.764828
3.74505
5.02886
1.00027
0.755659
1.12783
0.10764
5.07183
4.49928
1.51563
1.44502
5.22173
0.412645
0.238621
5.20096
1.00369
4.84408
5.55415
2.98483
5.29215
5.56159
1.20982
5.50283
3.08554
5.34267
0.356322
5.34168
5.31237
2.35764
1.62621
5.33569
1.44572
1.36789
4.21717
4.92534
4.25633
5.09584
4.9894
2.44463
0.591006
4.39469
1.60891
5.15638
0.752175
3.14091
4.41788
5.27671
0.880273
1.22953
1.24311
2.97505
4.68589
1.00094
5.21014
5.3024
3.74972
2.93148
3.68906
4.84349
0.448312
0.708261
5.38395
4.40303
5.38825
1.79549
4.16459
5.72899
5.01785
1.74817
4.99871
1.02364
0.664139
0.907518
5.07907
0.51097
5.7225
0.485549
0.552545
4.47685
4.78044
5.76471
4.78312
1.49071
1.9024
1.33975
5.49789
5.75338
5.4102
4.5774
1.24687
1.22028
5.72125
3.16575
1.41285
5.52967
4.5355
5.68186
5.01372
4.89421
3.00826
4.48754
4.92643
0.821832
5.26284
5.2567
3.87553
0.886752
4.18429
1.75489
1.76563
3.65805
4.41053
0.818746
1.6351
4.48042
4.7277
0.758578
0.771944
5.53978
4.45529
2.42872
4.77018
5.48452
0.762849
1.35427
4.60495
1.42422
1.01295
2.89298
0.681435
0.688714
2.73393
2.39835
2.72023
1.06209
0.771613
1.06822
1.63814
1.1326
1.13642
1.42517
0.983586
0.233154
4.52634
5.04439
1.62898
2.12232
3.07423
4.33547
0.723015
0.898728
0.940768
4.73187
4.80983
4.8173
5.69217
1.5356
2.93432
0.62008
3.76443
1.46908
5.16834
2.55506
4.99063
1.64577
1.24153
1.45896
5.29042
1.52027
4.90229
4.60973
5.29895
5.16367
3.76976
3.79442
4.3203
1.14066
4.48409
3.05889
1.59589
4.20477
1.32043
1.44743
0.184239
1.26253
4.53436
3.98011
3.22898
0.278707
3.80932
5.39258
1.22229
1.60597
3.26411
0.796145
4.6155
4.94106
5.24025
3.59818
0.920893
5.47502
1.1584
1.30687
5.7365
3.95289
2.78375
5.63341
0.447241
0.859815
3.88845
1.63599
0.64338
0.377727
1.53085
2.71983
1.33429
1.18954
1.03672
1.27449
1.14889
0.827382
0.526825
0.282022
0.866478
1.58447
0.779493
2.13514
0.35572
1.64115
0.661355
4.36415
5.0113
0.252234
0.391203
3.23122
5.03268
5.16582
4.68861
4.6648
0.511135
3.6102
4.48126
4.49495
4.4343
1.33018
1.55345
2.86546
1.61593
1.3269
4.66731
1.60839
0.753503
4.22907
0.501853
4.16602
3.99848
4.74468
0.791975
0.798588
2.99019
1.64352
0.83206
1.42524
0.0250551
5.05814
1.42609
2.9336
4.36744
1.56825
4.27036
3.63782
4.43411
2.12272
4.91417
1.44135
2.77462
4.1541
4.45396
4.28312
4.15765
5.233
5.30448
5.7002
4.75009
0.945758
4.89097
5.72983
5.09481
1.6629
5.10409
4.00378
1.48625
4.64566
1.62194
5.46624
3.2565
1.27253
3.85372
0.653759
4.96898
4.2393
4.42062
5.37908
3.46848
1.66151
3.46417
3.85375
0.249312
4.43725
4.09557
4.52985
5.6253
0.866605
5.7379
4.31929
0.788825
3.89073
0.0969596
0.848536
5.5272
1.11813
1.26919
1.00668
0.975288
1.26139
2.99693
4.09755
0.0732315
3.53568
4.04468
4.47764
0.565481
0.925253
5.8369
2.41413
5.70561
5.65211
2.40881
2.89688
5.72259
3.89138
1.13813
5.06759
5.19086
1.29763
5.00627
1.51392
0.227566
0.946562
2.15414
0.826982
1.0424
0.79113
0.861662
1.50799
5.71781
0.157676
5.16361
1.13061
1.33621
0.288551
0.934319
-0.0293618
4.87651
5.34461
2.58334
0.837142
1.24153
4.0605
5.04224
4.32203
4.71951
0.517353
5.47012
5.40824
4.10289
1.28833
1.6053
4.52611
4.00514
4.076
5.14364
3.1035
1.14803
1.4754
3.04197
1.4302
0.577515
0.246518
1.52652
4.61177
1.11325
4.59627
0.548883
3.45386
0.53172
4.61277
0.987848
1.42671
1.24105
2.96612
2.97749
5.10622
3.27814
0.450481
5.04131
4.44218
0.384848
1.69011
5.35301
4.17733
0.848072
3.79479
1.68342
2.38729
5.06566
4.14932
3.02656
5.03071
1.83381
0.796255
0.162043
5.71928
1.31879
1.19
1.7498
2.84293
4.4267
0.638186
5.04376
0.984665
1.00611
5.41172
0.683881
0.841192
4.71668
0.536313
4.85576
3.8248
5.49377
2.76287
4.48529
4.0112
4.43257
3.90711
3.02884
1.26517
3.00248
3.8095
5.22433
3.85948
3.08136
5.72076
4.50568
0.310338
1.65651
4.71235
-0.00746074
3.49535
1.43333
4.89401
3.79988
4.63521
4.33545
0.985248
4.11412
3.53575
4.51862
5.57248
4.954
0.713332
4.51607
4.56373
0.493387
0.303197
4.49031
4.45172
1.61339
5.45483
5.02601
4.19549
0.629085
1.61579
5.03959
4.56411
0.818691
4.84533
3.99445
0.419859
0.851761
4.79149
1.66011
4.4672
1.36457
1.67196
3.34595
5.20711
2.75199
1.2951
1.24738
5.57652
0.435273
1.22795
5.17976
1.32261
2.26954
4.48395
2.81846
4.47942
4.71141
1.60795
0.658156
0.18318
0.966352
2.69125
2.24989
5.40995
0.59465
0.629744
0.408128
1.45818
1.50529
1.63365
0.0433192
1.60837
1.69386
1.07971
1.59823
1.16376
0.800769
0.800155
1.45693
4.52001
1.25346
4.42552
5.7891
1.46273
2.76656
1.53399
3.81694
4.10324
5.76987
0.843141
1.33549
3.99669
0.737151
5.22031
5.15235
3.39436
5.07842
3.96939
4.43282
2.20463
4.13912
2.60735
0.754969
5.05258
1.10124
1.54233
4.66077
4.51168
2.26102
5.58648
4.02537
5.53914
1.46957
4.46817
0.0647771
1.66703
5.55325
5.61368
1.31854
1.6343
3.18976
4.61914
1.30743
3.98237
1.68037
3.22829
1.6519
3.67122
2.54882
0.782992
0.881239
4.54831
1.62034
3.72271
4.82073
2.80669
0.479171
1.4313
2.17202
0.429855
4.45354
0.896423
0.618237
4.25151
4.17502
1.63133
4.97144
0.786996
2.4767
4.17145
2.40278
2.98223
1.77209
4.46036
1.67547
0.735197
3.32686
0.514311
1.49269
1.17274
0.783361
4.36394
0.64476
0.794021
1.46571
5.16271
2.21
1.163
2.65789
2.99067
0.693846
1.33441
1.13671
5.22858
4.63259
2.18647
0.829834
1.65514
0.582885
5.59676
5.77784
1.08725
1.65705
0.310121
0.784605
4.34394
5.13931
4.61946
1.1156
4.43286
5.05742
0.826917
5.01624
1.53498
2.2261
5.30545
2.16322
0.991613
0.983766
4.56774
0.808746
2.65607
1.26507
2.29613
4.46868
4.02716
4.69697
5.49237
4.1504
3.55946
1.18134
4.96032
0.0392391
1.66703
2.96558
5.74383
4.27265
5.73066
5.15105
4.00031
3.875
3.15308
1.79781
0.833086
1.11283
1.46007
4.8081
4.37368
0.620989
5.71737
1.42013
0.816809
1.46742
3.57966
3.15882
5.84491
5.31184
0.0988301
0.912681
5.13142
0.487768
2.61761
0.540652
0.643582
4.01244
0.814727
4.94411
0.682312
3.3008
0.665947
4.31118
1.18382
0.762458
4.04303
1.36259
2.15382
5.6321
4.62787
4.68338
4.44357
1.6825
5.4252
5.69191
0.569718
2.6678
0.669611
4.04691
2.2683
4.46147
2.31238
0.421704
0.733612
0.502527
1.26722
5.04508
2.49502
5.4277
1.47529
1.47135
1.0807
4.0441
4.49078
4.46145
0.885658
0.740595
1.52556
1.23083
0.941868
1.57042
5.21085
5.18482
4.87835
0.614348
3.17097
1.48572
2.82467
1.13087
0.887871
4.47624
5.09777
2.79298
1.66753
1.49891
1.63817
5.14012
0.366841
0.606273
3.09304
5.28726
1.72585
2.55685
5.68614
1.16999
1.68949
4.90147
0.931213
2.44658
0.923037
4.28681
2.73416
0.746938
1.28035
4.49282
5.66396
1.58364
5.14591
4.732
0.599555
1.12287
1.54496
0.485262
0.467536
4.6993
5.67835
2.79099
0.166419
1.10817
5.47505
5.14212
0.270943
5.0878
1.4539
3.14475
5.63404
5.18971
0.237249
3.26064
3.98742
1.40984
0.685281
4.13433
4.70463
0.96894
1.60339
0.427964
4.95418
0.476092
1.46197
1.33947
0.740499
0.00601289
1.58519
5.46699
4.41253
0.947262
5.79281
3.50848
4.48747
0.896699
3.00501
4.2927
1.19988
4.17356
4.53564
1.17951
2.419
4.4604
1.74925
5.40684
3.00983
0.00079866
1.58034
3.91789
5.636
1.34329
5.15016
2.92154
3.02249
4.34581
5.17399
5.61744
2.33348
2.42216
1.66926
4.31847
1.0101
1.14291
1.13454
4.39788
1.17897
0.754062
4.95136
1.26364
5.30523
5.79157
3.30441
1.34815
4.72452
3.90963
4.5416
2.70037
1.39708
0.773822
1.38683
4.53049
4.56543
4.64517
5.41894
4.96355
2.87332
4.82278
0.468926
5.29099
1.1924
4.31308
5.27258
4.33033
5.42025
5.27232
5.22427
5.94171
0.694974
2.67305
2.41264
0.409598
5.62818
4.99277
3.85207
0.562901
2.85459
2.3768
4.74663
4.63808
1.33341
3.46382
4.77711
4.94878
5.44484
0.848998
4.91195
4.26913
0.867498
4.39404
5.51418
5.56652
4.69901
4.46672
4.72168
4.48884
4.8286
3.82348
0.140139
0.531332
5.39611
1.67194
0.0929333
5.27029
1.15844
0.0413063
0.838811
4.22683
4.3992
1.42942
1.02141
0.242454
3.90416
3.84307
1.0019
5.70208
0.973615
4.48327
4.349
2.50931
0.450987
3.85977
5.40418
5.70787
4.4326
1.63436
1.47917
2.49487
0.620085
1.17765
5.72881
1.27667
4.84081
3.80898
4.85324
1.14764
4.42782
5.69471
5.0673
1.0022
4.1035
4.44993
5.65425
1.14991
0.325797
1.67537
4.45655
0.658637
5.05966
3.14174
1.59979
2.78728
0.508448
4.48269
2.61301
0.909678
4.46242
0.788761
4.48449
3.77632
3.87483
5.0367
4.31488
0.25377
5.54014
4.48221
1.14675
5.07957
5.01651
4.49739
5.7253
4.03253
0.896345
4.30771
1.25146
3.00525
1.04697
1.03057
1.73621
0.471129
5.07986
0.531629
0.535934
0.333323
2.69436
0.897869
3.79413
4.5273
5.39266
1.81706
5.65432
2.75513
1.47148
1.2866
5.51701
0.74674
4.22005
4.5319
2.38794
0.725789
1.66629
0.920475
5.70929
4.46703
1.19889
0.897425
0.452255
0.474668
4.37487
1.63344
1.18402
1.47021
4.8921
2.70156
1.60502
1.24253
4.9684
5.24527
1.52244
4.13532
0.966237
0.476851
0.495367
1.25288
1.78492
4.17029
1.31393
1.57335
0.336734
1.55853
2.40016
4.08048
4.71794
2.30763
4.48129
5.00115
4.47313
4.13524
0.439311
1.04843
3.94983
4.1814
3.6585
1.00599
4.98737
1.97342
4.87312
0.0453882
4.56564
4.57188
0.652674
1.49572
1.25792
4.43367
0.000439818
4.98199
5.42647
5.67968
1.9388
4.80628
2.88446
2.79906
0.988924
1.35352
0.853739
0.810989
4.83725
3.82258
0.73623
0.654297
0.656964
0.810105
5.25767
4.97386
5.19845
1.61085
4.43882
1.5871
4.74343
1.31909
1.21464
1.24485
5.13068
2.47171
1.61909
1.22217
0.971277
5.15764
4.88674
3.55142
1.42335
5.39756
5.71918
4.16045
4.6399
0.365841
2.62462
5.63765
2.6944
4.46803
4.66491
4.2647
3.72389
0.995483
0.817473
1.47684
0.821471
0.0532781
0.63695
1.49545
5.73618
4.45366
0.951243
1.34487
4.44565
0.888672
1.6048
1.14179
4.23295
1.48124
2.79207
2.91025
1.14599
4.56245
4.51361
5.35122
1.03245
4.0857
4.74237
0.170932
1.64566
0.701422
4.06356
4.61552
0.701076
4.67085
1.44535
4.27697
4.07144
1.00668
3.31415
1.02217
0.737316
1.47345
5.60963
0.802775
0.277586
5.22512
0.903995
0.8598
5.42202
4.9799
1.01855
5.63466
5.17175
4.82955
1.67434
4.64069
5.24244
3.65413
1.0311
4.80213
0.892753
0.643554
1.26088
1.21981
0.663776
0.838956
1.4801
4.34262
1.21742
2.57055
1.44811
4.63076
4.61014
0.538775
1.06134
0.898009
5.38849
4.91269
4.51708
4.112
2.7366
4.0644
4.75983
0.973739
5.04157
4.35408
1.53821
4.22254
4.29911
4.28598
4.33857
4.465
4.46135
4.76006
5.2597
4.46022
2.91409
4.80453
3.19006
3.01389
5.36945
1.98536
5.29968
5.46338
2.04453
5.53915
4.29228
0.726781
1.17449
0.473105
3.48504
4.62446
1.54755
4.30586
0.991045
0.995747
3.68763
4.45579
4.52951
4.47082
1.33576
4.50392
4.65085
1.13979
0.0829518
0.202611
1.84708
4.48219
1.11996
0.28973
4.45738
0.828694
1.98273
0.79853
1.23017
4.4958
1.58187
4.48584
4.84432
4.54897
1.3483
3.35937
4.58231
4.89096
0.910191
5.40358
1.0038
1.05339
1.22839
4.88312
1.54104
4.56725
3.53885
4.00598
0.342427
1.65157
5.04547
0.1446
3.95447
0.651092
0.480421
4.38071
2.47572
5.12158
5.09246
3.25891
1.20163
1.35579
0.902693
2.84725
2.7758
1.16939
5.60389
5.15923
1.45747
4.56116
1.49035
5.25638
5.65001
1.35423
3.38936
3.37492
0.332605
3.22027
4.44571
1.06365
2.66932
4.8419
1.6812
4.45779
4.44412
1.68868
1.45931
0.616057
4.30809
2.54702
2.7798
4.29238
0.898621
3.99468
5.79248
4.54767
0.700427
1.44341
0.733988
0.351234
5.24046
0.645714
4.59608
1.68302
0.305282
0.226206
0.307173
5.24225
1.157
3.22863
5.35597
3.78902
0.309171
5.33668
1.45325
5.47646
1.63191
4.24503
0.968762
3.69265
2.23061
5.46652
1.2417
1.70697
3.52446
3.99571
0.393985
0.709496
0.393478
4.48485
5.04488
1.03907
4.63958
0.074291
1.60794
3.53442
0.710856
5.615
1.58312
4.61359
4.4501
4.49064
1.30014
2.03489
3.43072
4.30773
1.19714
0.179407
3.36301
5.75691
3.32203
4.21462
4.53271
1.34156
0.595918
1.63481
1.02739
2.72809
5.15636
4.36571
4.65104
4.57109
4.66111
3.67042
1.06068
2.40381
4.03239
4.16122
5.26937
1.41522
5.07877
1.38523
3.74402
3.01709
1.95282
1.57076
3.30054
5.48587
4.11546
4.49913
1.40688
1.90695
2.89997
0.464854
1.51094
3.74414
3.85023
1.92537
3.46768
0.719509
2.6443
4.17864
2.9485
4.30567
4.28296
4.17813
1.19627
2.6926
4.32339
2.71351
5.18984
5.49904
1.39606
1.61743
4.53029
3.91509
0.871239
0.898458
0.662605
1.1475
1.66993
0.675292
4.18641
0.867574
0.884911
4.37375
2.86425
1.62045
0.962405
0.950722
4.72927
5.21637
2.55411
1.61597
1.67401
1.1816
0.32542
4.7037
3.02427
1.14953
1.16134
3.07788
1.33646
3.9154
4.96814
1.45341
0.890132
4.97045
1.63912
1.20007
1.11935
1.11641
1.54377
2.54529
5.52894
0.427152
3.98144
1.39572
3.9149
2.05152
1.11077
1.3418
5.58916
1.40793
1.57727
1.42379
0.0365951
4.28205
1.24825
4.29204
0.979447
1.70914
0.888942
1.38457
1.69975
5.28641
0.634761
1.61535
0.64502
0.066476
3.23851
0.98567
4.58811
0.313996
1.15145
1.15274
1.36072
0.0525728
5.00974
0.246924
1.35674
1.30658
5.6111
4.37756
5.46252
4.51267
4.78272
3.8004
0.246932
3.83426
4.55736
4.45693
5.53891
4.56507
0.973501
1.48719
3.35085
3.69431
4.03879
4.94275
0.719188
5.59998
1.19438
1.57744
1.48975
4.04515
2.62463
0.987428
1.72012
4.61801
3.68969
5.48228
0.166191
5.14216
4.92237
1.46076
5.78019
1.10389
0.737382
4.96419
5.22885
1.43806
0.733475
4.28524
0.515213
0.315262
1.1725
1.52055
1.40365
0.648267
1.74175
4.79382
4.4484
0.0212786
4.80722
1.19765
3.20717
3.72022
0.770732
0.759377
3.89673
4.45084
1.3338
0.521904
4.92063
4.76938
5.5496
0.732005
0.452839
0.932915
0.288329
1.64134
0.716946
4.66304
1.13303
5.5422
4.56268
3.82555
4.97731
0.260185
1.69227
3.60972
0.359595
0.00504208
1.646
1.49352
1.46503
2.70817
4.47744
4.50317
4.13443
1.64225
0.916267
4.30844
1.29625
1.01819
3.49467
1.00797
4.49472
3.71275
1.33233
0.646756
0.613912
2.67373
3.38885
0.743506
4.59539
5.01376
4.46037
4.22584
4.47191
4.27664
2.25244
2.55916
4.76605
1.46468
0.236639
3.22807
4.53054
1.43251
5.05588
4.4812
4.47231
5.12571
4.8021
0.596197
1.52826
1.52673
0.388812
0.705653
5.60689
4.46021
1.64043
4.49449
5.36701
0.921902
1.64946
5.64181
0.655557
1.48598
4.04515
2.62504
1.099
4.33204
0.410979
3.947
3.93732
4.29423
3.37714
4.66291
1.4798
5.59575
4.62632
4.63722
3.33572
0.606207
1.50983
0.546396
5.68091
5.6111
1.42258
0.604647
5.89429
5.63515
4.73825
5.67704
1.16022
4.03554
1.53964
2.99901
4.48773
5.14268
4.43453
2.55946
1.43242
1.32533
5.32671
1.48293
0.143065
5.28884
1.90932
0.588118
1.51804
1.3874
0.991375
4.45153
0.428517
4.60587
0.289347
2.70963
5.13966
3.30528
0.828578
4.50762
5.08541
0.330646
4.4884
1.64719
3.74007
1.40202
1.51315
0.530617
4.87754
1.63134
0.442409
5.31989
1.60043
0.313464
1.13209
5.26257
4.04128
1.58069
0.250207
5.45137
5.38736
5.39396
1.50973
5.45641
2.64296
5.12619
1.03064
1.35895
1.50068
4.58427
0.126191
1.51825
0.427268
3.63949
4.53828
1.62443
5.42831
4.22202
0.83009
5.03788
0.272265
5.13735
1.51735
5.50887
4.62188
1.88207
1.22114
0.636248
1.22083
1.55298
4.33791
1.0065
4.42046
4.78193
1.66315
5.72226
5.61982
4.41593
2.1372
4.44971
-0.00193044
4.30914
0.274764
5.32845
0.668403
0.682228
4.64658
0.665504
1.73233
4.57631
4.57374
4.80067
3.89067
5.00575
1.54992
2.61246
5.06613
3.86296
4.02854
5.05865
5.25087
4.77906
3.13412
0.108771
0.269065
3.01141
5.75462
4.02815
0.283931
4.07607
4.86449
1.52448
3.13713
1.0052
0.38491
1.32495
4.95196
0.565283
0.923793
2.7231
0.822679
0.975373
4.49738
4.30019
2.58885
0.670133
4.94687
1.06684
4.48436
5.18038
0.766004
0.467829
5.18188
0.739028
0.721731
4.15086
2.86638
4.17902
3.97632
4.15894
0.423192
5.14128
1.10463
4.50495
2.59566
4.07127
4.06803
1.60863
4.9315
0.0936334
4.88953
2.6362
0.904347
4.58714
4.38895
5.08593
3.82677
5.29503
3.58555
4.82678
1.63885
5.11503
0.931379
0.782366
4.74804
3.46364
4.10944
3.86274
1.13898
4.1646
0.241283
5.43362
1.53731
1.09381
1.66899
1.09251
0.992133
0.849014
0.756028
5.30013
1.02849
2.05459
4.00567
1.41545
5.08651
0.726859
3.57964
5.71012
1.57825
5.14212
5.26201
1.5432
5.01273
2.39934
0.0739462
3.613
2.28384
3.87763
0.642661
5.76695
1.3445
3.44445
0.496686
0.452084
1.32572
1.66774
3.63199
1.98338
3.58392
1.39734
1.33273
4.81171
5.25521
4.97218
5.24401
0.32305
2.67272
0.964348
0.967876
4.4906
4.06559
1.17425
0.818738
5.74221
3.23597
4.69573
0.567472
5.60185
4.61574
5.13446
1.15044
5.22296
5.06298
1.6527
3.34416
2.93883
3.2347
3.83412
4.17232
1.27257
0.921013
1.43807
0.23731
4.82159
3.9822
1.28029
4.70683
4.43175
3.69237
3.65879
4.7707
1.65911
0.325011
1.19017
4.64921
5.02968
4.17625
1.22688
5.04378
1.76895
4.91242
4.46472
0.865215
5.52419
0.328236
4.61519
0.768244
5.65912
0.249286
1.66097
5.22426
5.59529
3.9759
4.51029
4.92202
1.42607
5.39889
5.27738
4.96588
1.58444
4.5275
0.968054
0.83606
0.250249
1.57338
0.76001
5.11417
0.694857
4.26871
5.11754
3.39755
1.28112
4.22626
3.4732
4.26833
5.36821
2.79411
4.82667
4.51368
1.58315
4.92088
4.54703
1.44239
5.20913
0.741108
1.60524
4.52249
4.62383
4.21252
1.6379
1.62278
1.62811
0.0124417
4.63068
5.27982
0.943346
3.16206
4.67038
5.4582
4.58707
0.0525179
0.867212
1.49536
4.33809
0.416067
1.58924
1.61653
4.25884
4.59118
4.24516
4.28134
1.15665
1.68339
1.63955
4.15773
1.61657
4.11291
3.41506
0.581086
5.72112
0.113454
4.90303
1.65419
3.07505
3.88081
1.67582
1.68294
4.98171
1.52758
3.37192
4.52306
1.00817
0.978069
1.38386
0.893917
0.544044
4.01375
0.297224
1.33623
0.30437
4.49013
1.65847
4.54696
4.64948
0.545951
3.09704
4.46429
1.64564
0.312607
0.518698
5.39589
0.993504
5.30391
1.01528
0.664601
3.14817
0.6511
0.287916
5.00237
4.64979
1.37208
4.47146
5.36407
1.66594
5.6929
5.41949
5.28177
3.795
4.88785
5.30756
3.87439
0.856423
3.83138
2.70185
0.839784
4.70953
0.929603
0.256926
4.72932
5.1611
1.63727
5.33893
0.486956
0.953191
4.1528
0.313757
0.512775
4.98673
1.37265
5.21466
4.42401
1.7119
4.38033
5.64221
3.15163
5.49316
1.56352
0.987244
0.966432
5.58199
3.02156
2.38341
1.07666
4.49689
0.314452
0.682012
4.1708
0.772282
1.62538
4.42574
0.291949
4.17744
5.64849
4.30572
5.14912
0.870553
1.7367
5.14191
4.32066
3.34074
0.581394
1.56202
5.38825
1.2733
4.75678
1.44963
3.65613
1.88283
4.73118
0.95431
1.13375
4.60683
3.85154
2.47099
2.41994
5.28322
0.0214935
3.88249
2.72428
0.985899
5.61683
1.70767
5.31358
3.39494
0.804502
0.830581
0.182282
0.967816
1.46798
4.4688
0.825982
4.47595
0.836048
4.28096
0.196472
0.0742807
1.67452
5.14405
0.661776
4.26687
1.49584
4.45941
1.45243
2.37423
0.241257
4.25172
2.30546
4.26506
5.48031
1.0215
4.44726
4.44583
1.6996
4.97361
4.96065
5.00488
5.35025
4.35879
1.61731
3.96319
0.630287
0.235084
0.284869
1.64614
1.70083
0.381679
5.73358
1.48814
0.786931
0.392738
4.4191
4.36311
3.90513
5.2867
5.96809
2.50503
5.27565
0.433508
0.782374
1.90808
5.59092
4.29866
5.62551
1.95014
1.42895
4.78537
3.94685
1.71615
4.78579
1.24277
3.29256
4.52833
1.28541
0.755778
4.53808
4.42044
3.9268
1.19217
1.13882
0.855802
4.44945
0.0708617
3.12101
0.746061
4.70826
0.729271
4.32419
5.36224
4.16132
4.55458
1.19618
4.14886
1.48867
0.239142
5.08703
0.381763
0.717034
1.21402
4.48817
5.73144
3.60214
2.66601
1.82009
0.684494
2.71185
1.64119
4.37804
3.18184
3.66861
5.41854
5.48104
1.3338
0.643363
5.53298
1.64995
5.03422
5.61394
3.39703
0.282941
0.534915
0.417784
0.811921
0.265433
0.504221
0.659208
4.64273
4.12128
0.67703
3.93164
0.228629
5.19042
3.90811
4.54061
3.76236
0.528635
5.59081
0.724385
3.47145
3.73679
4.33652
0.234674
2.89392
4.76101
5.54884
0.897507
4.88472
0.89749
0.095762
5.51208
4.91732
5.53685
2.50083
3.86285
4.09887
1.58184
0.650064
0.78134
5.41352
0.657181
4.38562
1.74282
0.972645
4.55444
5.00324
4.57169
4.82472
5.16549
1.38785
1.09403
0.765699
4.15339
4.11322
4.17585
4.38295
4.74915
4.76883
0.495421
4.16576
5.10607
4.81845
4.80494
4.93085
2.48614
4.96089
0.507701
5.61274
0.493021
1.35508
3.00061
2.48115
0.922298
1.04533
1.15123
2.14266
1.655
5.53287
5.50774
4.61581
5.41707
0.797792
4.53553
2.28962
0.551148
1.68554
4.83571
5.81988
5.39585
4.46001
0.578743
0.957941
3.58043
5.45765
1.10134
1.70435
0.921379
5.14608
5.64296
4.5047
0.64714
0.0140672
0.66854
1.55973
4.32025
5.62672
0.93741
1.584
0.0445732
0.0474265
0.983079
4.48962
1.47471
4.72725
1.28323
3.44491
1.52532
4.71393
1.44745
5.62315
1.41181
0.409938
5.16313
4.35866
5.15168
0.0108972
2.09767
4.20426
2.74719
0.461431
5.395
0.452849
1.56658
0.0179542
0.757418
1.62006
1.618
0.481358
4.53084
5.83032
0.923862
4.28246
1.5724
5.50334
3.04891
4.2649
1.5927
1.31221
0.836843