/*--------------------------------*- C++ -*----------------------------------*\
  =========                 |
  \\      /  F ield         | OpenFOAM: The Open Source CFD Toolbox
   \\    /   O peration     | Website:  https://openfoam.org
    \\  /    A nd           | Version:  9
     \\/     M anipulation  |
\*---------------------------------------------------------------------------*/
FoamFile
{
    format      ascii;
    class       surfaceScalarField;
    location    "0.4";
    object      phi;
}
// * * * * * * * * * * * * * * * * * * * * * * * * * * * * * * * * * * * * * //

dimensions      [0 3 -1 0 0 0 0];

internalField   nonuniform List<scalar> 
143364
(
-9.97142
1.8207
8.15072
-4.2411
8.70775
-4.46665
9.86128
0.928613
-10.7899
-13.3232
8.95555
4.36764
-0.252616
10.1139
2.94431
-8.91724
5.97293
8.13817
0.67458
-8.81275
-0.793095
-6.71361
7.50671
6.3418
-11.1711
4.82929
10.161
-2.02282
8.67136
-8.33513
-0.336227
1.91963
6.75173
-0.0747365
8.31883
-8.24409
-10.3832
5.86236
4.52084
-9.94704
5.81055
4.1365
10.238
-2.64442
-7.59358
2.21482
8.03662
-10.2514
6.82873
-10.4634
3.63463
-0.638031
-9.03302
9.67105
0.273283
9.96471
0.306926
6.13105
-6.43798
-0.673464
8.46287
-7.78941
5.83591
-9.30551
3.4696
9.73713
-6.79281
-8.43367
7.76021
-2.37074
9.09207
-6.72133
-11.1975
7.14038
4.05709
-9.66513
0.747886
-5.74243
6.04935
-5.37839
11.2143
-2.57332
8.91512
7.94624
-8.97924
1.033
-6.85815
-4.33933
-10.7736
11.5335
-0.759923
-8.89181
10.8363
-1.94451
-8.37045
-9.45241
17.8229
10.9361
-9.87065
-1.06547
-17.1941
15.1448
2.04923
9.65623
-1.70999
7.68017
-16.0506
8.17691
-11.7616
3.58472
-0.0626367
-7.53457
7.59721
-6.47802
9.53298
-3.05497
4.59976
-10.582
5.98226
5.16901
5.58666
-10.7557
-13.289
4.75768
8.53134
-10.723
-2.56606
-4.82472
8.70877
-3.88405
11.8628
-6.648
-5.21478
3.78195
4.75358
-8.53553
9.10752
0.122965
-9.23048
6.86425
-10.6333
3.76904
-1.60599
-2.26711
3.8731
11.3508
-2.24333
-12.5899
8.51342
4.07648
-2.74007
8.51986
-5.77979
-12.429
-4.76502
10.1329
-1.86588
-8.26698
-3.02147
9.79634
-6.77487
-1.3151
-5.98213
7.29723
-11.2698
8.49958
2.77018
4.70955
-7.44962
9.75487
4.16164
7.70114
1.92874
8.04181
-9.97054
-13.1907
-1.48185
14.6725
-11.718
7.93721
3.78078
11.3824
-8.12251
-3.25989
12.6698
-7.82364
-4.84614
0.354615
-0.766722
0.412107
2.09761
7.35664
-9.45425
-12.0794
8.20427
3.8751
-3.61604
12.6
-8.98392
-3.56941
-6.81378
-0.372039
0.221552
0.150486
6.3698
-11.9491
5.57925
11.5153
-11.5153
-9.28958
5.04848
-7.10339
-2.18619
-4.26217
-4.19806
8.46024
12.3614
-8.09089
-4.27052
-4.37358
-5.62488
9.99846
-6.07047
-5.18984
11.2603
3.01371
-8.98374
5.97003
-0.911801
-7.98001
-11.5689
7.19535
0.257147
-1.819
1.56185
-7.84059
0.704973
7.13562
4.90148
-1.12806
-3.77342
-13.1996
11.4891
1.71049
-0.182738
-0.1893
1.72204
7.81198
-9.53402
-1.70219
-0.789367
2.49156
-2.72015
0.0146786
2.70547
-7.75839
6.9653
-1.68183
8.43074
-6.74891
-9.94524
11.7287
-1.78348
-15.3813
9.93791
5.44342
9.39015
0.742709
9.21367
-6.36448
-2.84919
-5.48242
12.3467
-9.33132
2.8533
-2.09674
-6.04086
8.13759
1.6376
-1.38046
-5.11083
8.32886
-3.21804
3.55283
4.17172
-7.72455
-3.43797
-3.2414
6.67937
-1.32613
-7.0334
8.35953
1.66195
-9.63914
7.97719
-3.40742
13.4365
-10.0291
6.22852
-1.32704
8.29115
-8.81118
0.52003
6.53331
1.26302
-7.79634
9.13491
0.780278
-9.91519
-9.29497
11.4991
-2.20414
2.79502
-8.86549
-6.07668
10.5131
-4.43638
6.10328
2.72401
-8.82729
-4.89116
8.83069
-3.93953
3.87746
-9.89048
6.01302
6.68923
5.67218
4.90215
-10.2019
5.29972
5.97907
6.69071
-0.549615
-0.954513
1.50413
9.10214
-10.1933
1.09112
6.64077
-0.522977
-6.11779
-1.48246
0.93285
9.15388
0.660649
-9.81453
-16.0583
14.3411
1.71722
-1.87634
8.51711
-15.2398
-2.13048
17.3703
-1.20006
-9.54073
10.7408
-10.5845
0.800317
9.78415
11.2336
-7.36429
-3.86927
9.63671
-6.92417
-2.71254
-0.274655
-7.59986
7.87451
5.542
2.54784
-8.08983
-8.46616
7.15106
4.36748
-4.70191
0.334424
-2.63394
0.931751
-11.531
7.76514
3.76584
12.2094
-6.36686
-5.84258
-12.4862
7.99627
4.48988
-14.5662
14.9805
-0.414239
0.308507
-9.24072
8.93221
-10.1384
-4.42781
-10.1599
10.102
0.0579497
-10.367
0.609375
9.75758
-6.65917
8.95038
-2.29121
-8.1995
-0.622841
8.82234
-3.1384
-4.29536
7.43376
-4.13245
-7.58554
-5.49383
10.0506
-4.5568
-5.56066
-4.59926
-6.84226
-3.10478
3.50674
7.72944
-11.2362
-10.7482
-4.63311
-10.2129
9.91924
0.293638
-0.616593
-9.59629
8.46693
-4.91411
-7.44993
-2.09188
9.54182
-7.68823
7.68823
7.88628
-2.34428
-0.480049
0.286964
0.193085
-6.63618
10.1429
-6.52882
10.4983
-3.96944
-4.8037
9.65432
-4.85062
-0.258496
8.43531
-11.3035
2.86815
-8.41072
3.02885
5.38187
7.63885
1.18478
-8.82363
10.0873
4.30783
-14.3951
-10.6386
4.36655
6.27204
-8.63153
12.509
-2.83652
-5.15443
7.99095
-1.34746
8.98631
16.4153
-10.794
-5.6213
-6.25379
10.4738
-4.22
-0.714535
3.3154
-2.60086
-5.81936
15.9067
6.08739
-11.951
5.86359
-14.1414
3.04274
11.0986
0.296941
0.357015
-0.653957
0.0751103
8.53019
-8.6053
8.09247
1.26692
-9.35939
-1.12331
-7.9261
9.0494
-0.295428
0.59237
-9.78842
-2.69774
6.66054
-9.30496
-8.07085
4.93245
10.7739
3.28062
-14.0545
8.06168
-6.33964
9.11595
-6.10225
-7.44983
-0.960896
-11.3637
7.00657
4.3571
13.0079
4.83241
-17.8403
-5.31708
8.72518
-3.4081
3.14523
-9.22191
4.29716
-9.10086
-7.95748
6.21362
1.74386
-8.19509
1.9413
3.06993
-3.78447
-9.14917
0.130792
9.01838
3.7958
4.28934
-8.08514
-11.3974
2.24826
-4.96462
8.76043
-3.41169
-7.18824
10.5999
9.32441
0.305645
6.7536
-5.82284
-0.930753
-12.0432
-0.235437
-8.18545
8.42088
-12.3671
3.14358
9.22354
0.00740949
6.68183
8.31086
0.843027
-14.5748
10.4901
4.08471
2.64232
-8.13615
-6.60304
-4.43331
11.0363
-14.9764
14.9764
-6.39712
11.0687
-4.67158
2.83385
-9.23097
-0.232827
0.587442
10.9946
-6.24101
3.93648
8.27296
-5.85856
10.3204
-4.4618
15.3869
-8.63839
-6.74856
6.6606
0.997524
-7.65813
-6.98919
-4.37448
-9.76753
-2.86632
12.6338
-9.3029
2.09397
7.20893
7.66978
7.71717
-7.77269
2.66186
6.46728
-6.54202
8.99796
-0.905493
8.42178
-8.17286
-0.248915
5.17695
4.03673
7.90021
-11.4988
3.59859
14.0149
-7.86467
-6.15021
-9.27488
9.76528
-0.490401
1.88303
-11.1579
15.3199
-14.3694
-0.950504
-9.38787
2.96186
6.42601
-4.40855
-7.67082
-10.6185
2.77313
7.8454
4.17177
6.82283
2.01109
-10.939
8.92787
-13.9738
12.8669
1.10689
-9.80669
9.43959
0.367101
4.27878
7.10362
4.8909
-0.523419
8.76713
-2.90477
1.12459
6.70819
-7.83277
7.63421
1.9868
-9.62101
-10.0165
3.18346
6.833
-4.12859
-7.14117
1.21657
-8.72078
7.5042
4.95272
3.33842
-9.34223
0.0393321
3.07855
0.653912
-3.73247
-2.41866
-12.5577
-10.4895
3.60776
6.88171
-7.69004
0.0846056
7.60544
-8.26732
-0.879561
9.14688
3.20529
5.00062
-8.20591
3.17462
6.4621
9.34185
1.59427
-6.94037
8.06496
0.407774
-8.09782
-9.13222
7.38978
1.74244
-6.6362
12.1342
-5.49803
-10.5561
4.02726
-9.93924
5.04807
5.60728
9.71266
-8.40235
-1.53689
-2.11791
-7.01431
3.21434
-9.85054
-8.83099
6.73425
-3.30203
-7.16122
10.4632
-13.5695
7.06622
6.50326
-0.477836
9.54015
-9.06231
9.7392
-0.604289
12.5768
-2.54896
-10.0278
4.67155
-8.07897
-2.20864
9.06411
-6.85548
-0.197414
7.02614
8.74022
-2.88177
-5.85845
0.102299
-7.94289
3.85809
6.8305
-10.6886
8.34935
-4.49126
-9.26142
9.26142
6.14271
-11.4921
5.34944
-7.85916
-5.07379
8.62926
-3.55547
5.05655
-6.73838
-1.54952
-14.1414
-12.8436
4.12221
8.72139
12.6934
-4.74744
-7.946
12.5731
-8.41693
-4.15612
-3.73689
-6.88164
6.86388
1.05842
-7.71759
-3.12346
9.71285
-6.5894
4.3977
3.84927
-8.24698
6.81097
1.81935
-8.63032
8.17872
-9.52056
1.34185
-8.36016
-1.44653
-3.71033
-7.22783
10.9382
3.40258
4.99905
-8.40163
1.32062
-8.2498
6.92918
7.92002
-0.280819
-7.6392
1.56478
6.51235
-8.07713
-7.02996
-4.70098
11.7309
8.16435
-0.244334
-0.275927
0.546111
-0.270184
4.26522
8.31154
-7.96941
-12.1866
-3.8717
7.1813
-5.08369
1.77656
-5.2466
3.47004
-10.1495
10.1495
-4.75258
13.0441
-8.29153
-10.2032
6.58715
-0.508753
-0.757151
7.47526
-6.71811
8.52349
-3.92374
2.81093
6.31617
-9.12709
-3.97232
-3.23306
7.20538
-10.0692
-4.01883
14.088
16.0282
-12.1959
-3.83224
8.69714
-6.76841
7.59942
1.15684
-8.75627
-3.66553
-6.97306
-10.8116
8.29917
2.51241
0.702336
9.85444
-10.5568
-0.0485414
-0.422974
0.471515
10.8618
-10.8618
-8.02705
11.4567
-3.42968
8.29027
-1.4793
-7.82533
-3.70565
8.46699
-4.61772
-10.8894
4.671
6.21838
10.9548
-7.86628
-3.08852
2.20913
0.552395
-2.76152
-11.6545
8.63351
3.02104
5.71648
-6.83979
-2.65157
10.0917
-7.44016
-5.84674
-5.80781
-9.77404
7.12247
-2.7632
11.8653
-7.09525
-0.0552028
7.15045
4.48518
4.26824
-8.75341
9.32441
10.5355
-0.245751
-10.2898
7.06525
4.2856
0.971627
-8.83078
-6.01392
-4.41471
10.4286
8.52528
-7.3087
-10.7676
4.75372
-1.95076
-8.60732
10.5581
-9.56236
7.6116
-8.80333
8.38864
0.414687
-7.5722
-1.23113
-12.1257
2.35137
9.77435
-1.27368
-6.27395
7.54763
1.12491
-10.2206
9.09572
-7.15768
-0.799795
-7.21992
-2.77111
1.63286
1.13824
3.47577
-7.39754
3.92178
8.03869
-8.03869
-9.28944
5.57912
6.831
9.19717
-2.99537
-6.29407
-1.79959
6.9686
6.88928
-3.41352
8.13066
-11.7478
3.61712
13.0079
-7.38625
0.291006
2.58202
-10.0824
7.50039
-5.47066
6.72177
-1.25111
6.9133
4.0415
1.68206
6.73972
-11.4692
13.2705
-1.80127
-7.42018
2.59546
-0.79726
6.37882
-5.58156
-4.04113
-9.52834
6.85979
-11.3052
4.44542
-7.08913
-0.297127
-0.271313
-0.379419
0.650732
1.71832
-7.0354
-7.02811
-0.99555
8.02366
-9.47692
9.47692
6.45781
-10.2133
3.75545
-10.799
5.30185
5.49715
-7.84863
12.5884
-4.73975
3.20427
12.8967
-16.101
9.6856
-2.15879
-7.52681
10.9357
-6.43995
-4.49571
8.05556
2.88009
-0.418125
8.59684
1.30624
6.47576
-7.782
4.69955
-10.3244
-5.99833
13.525
-7.52668
-4.09811
-4.5254
8.62351
10.2558
-2.35564
9.72004
1.24243
-10.9625
-10.595
4.55411
12.0031
-4.45726
-7.54584
9.96291
-7.28079
-2.68211
1.71425
-0.569991
-1.14426
-16.0675
6.61512
-6.43024
-9.63729
5.62618
-3.84962
9.9115
-2.23918
-7.67232
-8.49438
2.28185
6.21252
-4.64895
12.7796
9.23068
-0.468979
-8.76171
12.8436
-2.93208
0.991038
0.723214
-14.6653
10.5816
4.08373
-9.1946
-1.6044
-5.44675
9.73973
-4.29297
5.60885
-7.20433
1.59548
9.80458
-6.99366
1.63178
-8.70537
7.07359
0.119279
-3.31671
3.19744
10.0292
4.39198
-14.4212
1.49211
-9.82725
11.4507
-9.52954
-1.92112
4.2626
-4.14332
-14.4005
-0.83929
16.5296
-6.5004
1.70513
6.84685
-8.55198
-6.11606
7.82118
-2.82753
1.22154
6.17058
1.88812
-8.0587
-7.15601
1.68535
1.9636
5.5824
-7.54601
-9.3604e-05
-7.7926
7.79269
-4.21871
5.95876
-6.59679
9.12564
-3.73675
-5.38889
10.803
-10.803
-3.95909
-7.60985
5.46211
-15.5313
-1.49833
-0.0148954
1.51323
7.76672
-9.04039
4.72053
4.90953
-6.16846
-4.02021
10.1887
-2.186
7.38819
-5.20218
11.1912
-6.84567
-4.3455
-9.11752
-5.47842
14.5959
11.9585
5.8644
-13.957
4.22007
9.73693
6.61326
-9.61532
3.00206
0.324835
8.11048
-9.57089
-4.38611
2.45819
6.72369
-9.18189
-11.5722
6.84911
4.72309
-0.180061
8.35698
-1.0004
-10.2492
8.08025
2.16899
-2.18879
1.23427
-11.4866
8.70003
2.78657
-9.41657
8.6958
0.720775
-10.2096
4.8858
5.3238
-12.2793
6.93631
5.34298
0.00579497
0.2929
0.110937
-0.403836
-7.2395
9.30876
-2.06926
-3.15268
-4.30132
7.454
-11.8325
7.61375
-6.1526
8.39788
-2.24528
1.01322
9.78974
-1.58658
-0.602212
-9.5273
3.3747
-11.332
3.48332
-9.86224
1.59492
8.70462
-10.0307
-9.18737
1.47868
7.70869
-7.71777
-1.22853
8.9463
8.57846
2.93683
3.04641
7.44163
-10.488
-3.62404
-6.04109
7.58191
-7.85656
-6.58347
7.28844
-1.8586
-7.66869
1.01385
-9.21335
8.38316
-2.6419
-5.74126
11.269
-7.48274
-3.78631
-1.69018
-1.08093
-7.86309
10.9095
-0.287226
-9.00775
-8.92146
9.4431
-0.521644
-10.1823
5.66264
4.51971
1.75729
5.32325
-7.08054
0.311353
-9.23281
-5.57664
10.0618
-8.70606
1.99245
9.61813
-1.96964
-7.64849
10.887
-10.887
11.0122
-3.0039
-8.00828
-2.68255
-3.26173
5.94428
2.24792
-1.54245
-0.705465
-5.24382
2.56127
-0.188274
-2.88381
3.07209
8.91644
-0.483244
-8.43319
9.97135
-0.412934
-9.55841
-0.602937
11.0148
-10.4118
-10.4895
6.25621
-8.62695
-10.0312
-1.31995
11.3512
-6.637
-4.84961
-12.46
2.58933
-10.7755
1.42163
9.35384
-9.6452
2.44666
7.19854
-0.0130652
-7.24026
0.210301
-6.50641
0.0947426
6.41167
5.81616
3.80198
8.75123
2.43994
-6.12989
6.06726
-9.75039
2.55566
7.19473
-2.8191
-6.44232
7.58599
1.85502
-9.44102
0.0564163
-7.79964
7.74322
9.93894
-0.253337
6.05474
-12.0531
0.205574
-0.254116
0.0658242
-10.8413
-4.65298
7.11118
-4.32628
7.53157
-2.08991
8.88746
-6.79754
7.35319
10.9107
-3.32472
-10.0931
-4.57225
2.63715
-2.82542
1.37664
-11.4697
4.59491
-12.4137
7.81883
2.08093
-9.17006
2.21815
7.53583
-9.75398
-7.218
0.569046
6.64896
-12.875
3.75745
3.06992
-10.2879
-11.8812
10.658
1.22318
-2.01495
8.7249
-6.70995
-9.65445
14.2371
-4.58262
-3.27269
15.0864
-11.8137
-10.367
2.05504
-2.93254
0.877503
-9.6312
-0.963771
-4.28864
7.01265
5.88118
-3.91757
6.32815
-11.6645
5.3363
0.536426
-8.88702
8.35059
-7.80178
4.36381
-9.93391
1.50498
8.42894
5.5479
2.53903
-8.08693
9.32598
-3.84916
-5.47682
-11.6874
7.79212
3.89528
-10.5845
9.28555
-0.369119
7.2754
3.19358
-10.469
6.85795
-9.06659
-6.19904
-5.48837
7.35012
-0.181305
0.656301
-0.474997
8.88388
-8.88388
-6.21078
4.62231
1.58847
0.503433
-0.684738
7.37524
1.95074
-7.33355
-4.23865
1.79944
-0.743282
-1.05616
3.97797
-8.98212
5.00415
8.02322
5.19409
-13.2173
4.87654
4.65644
-14.0473
3.76756
10.2797
-17.516
4.31641
6.6139
-5.29328
11.0184
-11.0184
-0.117981
-8.63828
8.75626
-6.34277
-0.897493
3.45185
-9.79462
-0.263289
-2.29063
8.32644
-6.03581
-10.294
8.00342
4.97667
-12.0101
1.182
-10.3942
9.21225
7.99774
-8.23317
8.31906
-6.10424
-8.80517
9.98718
1.93221
-0.132773
-9.35334
-6.44693
15.8003
0.693112
7.47124
-6.30406
-12.0627
2.70934
3.67442
-9.84288
-4.37712
-8.08286
3.9541
-7.10678
-4.47675
-2.0615
6.53825
0.237418
-9.24841
9.01099
-2.91497
-12.2755
15.1905
-9.16877
9.16877
-3.5774
-7.0559
-9.4821
9.4821
1.49627
-1.49627
11.3693
-5.41946
-5.94984
9.74189
-10.2129
0.471017
-7.91384
5.2173
2.69654
-7.9039
8.60624
-7.02103
4.83502
7.5135
1.61215
2.89254
8.11964
1.04263
1.20529
-9.56315
9.56315
-5.1663
-2.66976
7.83606
2.84352
-8.66224
8.0593
-0.770509
-0.21351
0.984019
2.90189
-6.8742
-4.64377
5.95002
-8.24179
6.71588
1.52591
-9.0153
2.41227
1.76609
-1.16008
-0.606013
-9.03118
9.83149
6.89973
5.68866
-2.65256
-8.15902
-4.56683
-3.17667
7.88622
-3.56301
-4.35082
8.41676
5.59812
10.123
-2.21252
-7.91051
6.09802
5.13554
11.8212
-7.39134
-4.42989
-0.321234
1.56565
-1.24442
3.08126
-8.15505
9.66396
-5.93238
-3.73158
6.62071
-9.32684
2.70613
-0.243502
0.764792
-0.52129
-9.90608
10.5155
1.86303
-8.54294
6.6799
-13.3141
7.38614
5.928
0.168732
-9.3561
7.43648
4.0272
-6.86372
-9.16443
8.99142
0.173016
-9.65445
7.84093
1.82303
-0.469816
0.469816
-7.16466
6.68683
-0.322884
0.155406
0.167478
2.52684
-8.96679
-6.16392
10.2878
-4.12393
-10.3033
6.65785
3.64549
-2.24706
-7.50254
9.7496
15.0875
-15.0875
-10.1994
7.95231
8.63376
-11.5916
2.95783
0.126412
8.50735
-0.00778153
-9.40879
3.07112
-1.01608
-3.5194
10.1799
1.44694
0.319154
-8.61992
3.45362
1.75177
-3.58762
-2.62316
-10.293
-1.12217
11.4152
-1.83344
-8.8408
10.6742
6.07373
-10.8263
9.55089
-9.55089
8.25786
-9.24343
0.985564
5.23639
5.5427
9.54485
3.19516
-1.65157
-1.54358
8.32652
-3.05063
-5.27588
-6.36892
-1.9465
8.31542
10.7434
-6.78877
-3.9546
1.02948
-8.53202
-10.1406
4.95072
1.83619
-8.00011
-5.29225
-4.04761
9.33986
-9.4183
7.61696
1.80134
1.77333
-0.422488
-1.35084
-4.55799
-1.39737
5.95536
-8.10461
0.200709
-0.891903
-9.04201
15.361
-14.4689
-0.892108
1.2706
-0.741315
-0.529284
3.81255
8.76051
1.09594
7.23293
8.10041
0.59534
-8.69575
6.78066
-8.79963
2.01897
-7.36479
3.10262
-9.38787
-5.03092
10.3744
-5.34345
0.26758
7.27759
-7.54517
-6.72153
11.5824
-4.86084
8.71699
-8.71699
-4.7758
1.51586
3.25994
-9.91193
3.81094
6.10099
11.3056
-3.60414
-7.70145
1.22199
10.0836
-4.05772
11.8378
-7.7801
-2.56667
-4.01483
10.1241
-6.10928
-10.3167
-0.456852
1.12272
-0.840305
-0.282412
-0.155406
0.0767239
0.0786819
5.91099
-9.96871
1.704
-7.56256
-2.1215
2.67389
6.51545
4.77235
-11.2878
-1.74294
9.31633
-7.57339
9.57349
-11.6002
2.02671
0.186263
-8.10879
7.92253
-5.16297
7.38111
-2.39897
-5.84282
-7.95726
-0.226589
7.8608
6.39569
0.357908
10.5729
-10.5729
10.9079
-2.8279
-8.07995
9.0781
-7.50367
7.77125
10.9369
0.290862
-9.24312
1.77544
7.46767
-7.86831
9.56532
-1.69701
-6.62366
-3.25641
9.88007
3.14953
6.42396
-3.99943
11.8677
-7.86829
6.48346
5.67165
-9.67108
-9.91196
5.39063
4.52133
8.4433
-9.17171
0.72841
8.65069
2.79998
5.31985
-8.98198
4.95744
4.02454
-0.155406
2.43364
-9.15517
5.9854
5.28365
15.8873
-18.306
-11.5807
-0.281729
11.8624
3.64325
8.17799
-9.73104
9.73104
8.82716
-2.02997
-6.79719
4.90182
-10.1941
1.21405
4.3948
-8.41367
0.963736
-4.39042
3.1997
5.68418
0.620596
-8.06284
7.44225
0.776472
8.12601
-8.90248
-7.65565
-0.498875
8.15453
-10.9405
9.08186
-8.1214
3.16222
4.95917
0.0339379
-0.463752
0.429814
-6.62094
10.4714
-3.8505
-6.94709
0.663344
6.28374
1.22584
-7.84678
9.75845
-4.21055
2.1881
-10.2152
-7.35521
9.21024
-10.644
15.1432
-4.49916
5.20869
-10.2513
5.04262
9.03587
-8.57319
-0.462675
-1.36712
6.94953
-13.2369
2.94385
-6.7547
6.81111
1.99121
11.1786
-2.35146
-1.43423
7.60481
0.202541
-7.8582
9.56959
-3.07239
-6.49719
-2.9241
2.9241
10.2694
-11.9669
1.69746
2.69542
8.05622
0.912824
-8.96905
-9.43014
6.12811
7.57782
3.16556
1.63236
5.22904
-6.86139
-6.83502
2.27703
10.338
-10.338
-0.391184
10.5313
-16.4609
5.92959
2.5962
-9.6996
-4.50762
-4.5198
9.02742
-4.66757
-3.21634
7.88391
-9.96743
0.19339
-2.78091
-7.18652
7.77322
2.51462
3.48994
-9.83538
6.34544
17.4642
-6.80996
-10.6542
7.15887
-11.668
4.50912
-6.30965
-7.00449
-5.21895
8.70889
3.35208
4.03745
-7.38953
-7.39162
-1.45671
8.84833
-4.219
8.81391
-3.03087
-7.7673
10.7982
-1.32491
-2.60278
3.92769
-9.7073
6.52918
3.17811
6.92846
-8.94341
2.63213
4.25715
8.98431
-8.98431
-3.26895
6.62103
-15.3979
14.0348
1.36307
8.44461
-6.74821
-2.23376
3.07028
7.27815
-10.3484
-9.00862
9.90953
-0.900909
6.66985
-5.51301
3.97281
-7.98764
-5.29182
4.65167
-7.89307
10.5142
-8.67798
8.76171
3.93174
-13.7693
12.2557
1.51356
10.2483
3.27672
-1.22228
-7.27905
8.50133
-7.19127
9.0543
5.93237
-14.6625
8.73012
-9.50242
8.28014
-12.15
7.39747
4.75256
6.76798
-13.4875
6.71952
7.1791
-7.45992
15.1605
-7.13729
0.50394
-7.89556
-5.92275
-4.38059
-8.35103
2.22065
6.13038
11.7732
-8.74506
-3.02817
7.35853
-13.1269
2.93591
10.191
6.97979
-1.18629
-5.7935
9.05109
-9.05109
12.0175
-10.8623
-1.15521
-13.1907
8.61933
-1.44023
15.3347
-15.3347
1.28019
1.87638
-3.15656
-8.28421
4.38795
3.89626
1.39484
-10.2229
8.82802
8.09322
-6.52844
-8.55967
1.28062
6.02096
-9.05183
0.546194
-1.3167
4.59641
-1.51786
-11.356
1.76114
9.59489
-4.72534
-4.57962
13.7902
-10.6918
-3.09839
9.41506
-4.20636
1.35006
-11.7557
10.4056
5.7461
7.23388
1.14927
0.628433
-7.95208
7.32365
-15.5641
13.6229
1.94123
-0.332292
0.332292
-0.775288
8.38284
-7.60755
-11.2882
-0.991079
-2.05836
-6.43602
2.30306
-8.76239
6.45934
2.04031
-8.40923
-10.3824
10.3824
-9.45216
10.8744
-1.4222
9.84933
1.03236
-10.8817
-14.5425
11.6275
10.5447
-10.1861
-0.358598
-8.15477
-4.68883
-0.257257
-7.52653
7.78378
-14.0473
7.10127
-6.2371
6.86554
11.2362
-4.4682
8.24687
2.29784
-6.99473
-3.25451
7.89132
-8.32847
0.437152
-7.70047
0.323725
7.37674
-5.42788
-2.27258
-1.48591
2.76609
-0.343037
-8.20834
8.55137
9.81193
-9.68896
-7.99359
7.65055
-3.10059
6.56258
-3.46198
1.36122
8.49322
3.32645
-6.42705
7.63264
-7.91986
-10.9261
7.39736
3.52869
-5.1155
-9.10277
9.10277
9.41073
0.331168
-7.42994
-8.33826
0.786286
7.55197
10.093
-2.46032
8.67914
-2.06588
6.20465
-11.4183
5.21367
-0.263243
2.13962
-3.40203
1.91612
-7.20106
0.694652
5.62641
-7.48602
1.8596
-3.22473
4.49452
-1.26979
-3.01957
-5.15329
0.805203
6.86392
-7.66912
3.85356
1.43669
7.28848
8.26358
-0.827101
-3.24482
-6.46247
-12.5436
11.1404
1.40322
3.13211
5.58488
0.964996
-7.23075
6.26575
-0.45657
0.0335964
1.76154
8.5079
7.3769
-8.83361
6.15849
-12.4791
6.32057
-0.866735
8.51172
-7.64498
-6.26439
10.7289
-3.35203
-2.88804
9.04652
-0.863986
7.33975
-4.33545
-8.25445
-10.3313
1.13669
-3.48508
-3.3249
-6.40614
-8.15089
7.35363
-15.402
2.90144
12.5006
1.61073
-0.376454
-6.8212
9.12425
-0.0743289
-9.16197
9.2363
6.13169
-5.32649
9.94848
-7.02215
-2.92633
0.685407
6.29438
-9.31385
9.31385
0.558336
-8.34534
7.787
-9.06081
7.75363
1.30718
7.50254
-9.74782
8.58493
-11.4431
2.85814
8.78929
-16.79
8.00071
0.270814
8.31412
-6.10802
10.3732
3.98478
-7.55419
-3.1524
11.9417
10.4782
-2.76125
-7.7169
-5.88055
-0.62236
6.50291
-7.51561
10.5584
4.3183
6.75041
-4.52585
-6.36421
10.8901
7.07805
2.79019
-9.86824
-15.1313
10.9485
4.18286
-1.55306
-1.16709
-8.18944
8.18944
-4.73431
9.63646
7.15163
3.32653
-4.02616
-3.68537
7.71153
-6.34963
-2.15515
7.2117
-6.84208
-2.21873
-0.952413
14.2402
-4.42363
-9.81655
6.2257
-10.2519
-2.93769
4.53202
-1.59432
-14.1075
5.68765
8.41987
8.91389
-7.51904
-3.1637
-5.73869
8.90239
0.357229
-9.68125
9.32402
-8.76742
5.60373
0.466262
-6.48732
6.02106
-3.93962
-11.6245
9.56959
-5.40685
5.20944
6.34052
-9.1862
2.84568
-6.69218
-1.49727
-3.70657
-4.64446
-1.53446
7.73912
-2.59895
8.65369
16.5174
-10.6281
-5.88925
-1.89474
8.23526
-2.67419
-4.14945
6.82363
13.0355
-10.5165
-2.51897
-6.66312
6.98795
5.72288
-9.47026
14.4845
-5.01422
11.1994
-2.72625
-8.47311
-0.847546
8.14536
-7.29782
-2.6095
-6.95365
10.5045
-2.24089
11.5721
-0.372751
-11.3107
4.64754
-3.54551
-11.5063
-1.03726
-4.43961
-8.3185
12.7581
1.97044
-8.52003
6.54959
-12.1222
8.23165
3.89055
9.97191
2.62805
2.32168
-8.94534
-3.9762
-0.817392
4.79359
-2.79239
-6.68971
-6.87191
-2.42189
9.2938
-7.57735
9.49698
11.9265
1.10896
-8.47431
0.896955
-4.00122
-1.82162
8.75511
-0.698882
8.79962
-0.284901
-8.51471
-11.0885
12.8926
-1.80412
3.72923
5.76775
-9.28249
2.76059
6.5219
-1.94025
-9.14823
-4.50774
7.4696
1.18086
5.43985
1.23165
-0.888393
-0.343259
10.617
-10.2287
-0.388263
-12.0088
8.3433
-0.316129
0.790343
-0.474214
8.5546
1.98093
15.8259
-15.8259
-8.70748
-3.45664
10.6074
-7.15076
-1.01597
-7.17673
8.1927
-3.46995
7.13634
-3.6664
7.62352
-3.01251
-4.61101
-3.1689
-7.29446
3.88177
6.98006
1.07541
2.72853
-3.80394
8.12543
3.89204
-9.00978
1.78195
7.8496
6.59409
-6.03576
-5.12918
8.85841
8.04962
1.91329
1.27542
6.7742
-8.41693
-6.88715
11.5491
-4.66196
4.92008
-12.7638
7.84375
10.5895
-3.16572
-7.42376
-5.44897
-1.70589
7.15486
3.7849
-8.29252
-5.99318
6.30169
-2.97251
0.0688743
2.90364
-8.61751
2.38813
6.22938
-0.787654
8.06306
1.50498
6.89793
-8.64087
1.25114
8.96107
-10.2122
11.4427
-11.0108
-0.43187
0.549302
7.12879
-7.67809
5.74317
3.2927
-9.81292
-1.6054
-8.67128
-1.24065
8.59003
-7.67871
-0.911317
-13.9665
12.8443
7.59318
-5.18807
-2.40511
-8.39836
2.51781
-7.25698
9.76575
7.31367
-9.26016
11.0329
-0.909858
3.78275
-5.84425
-9.36839
10.6195
-6.64646
9.05536
-2.4089
-8.1575
4.98084
-9.98377
0.481352
-0.0333803
10.6229
-7.78196
-1.86324
0.341563
-7.62236
9.23068
-16.8026
7.3323
9.5601
2.02226
11.4502
-6.26412
-5.18613
11.5366
-0.086352
-4.06281
-7.68496
-7.44269
5.23017
8.72519
-1.8654
-1.41768
-8.54593
9.96361
5.32542
12.1388
-9.29283
6.55727
2.73557
-1.05122
-9.90225
10.9535
10.2424
-8.22224
-2.02015
2.1909
-10.0556
-8.34326
-0.059091
-8.68723
-6.98219
1.92004
-9.15955
-14.4811
1.85154
12.6296
-9.76801
9.76801
7.4622
8.67027
-10.0451
1.37484
-2.85551
-2.04001
-7.25283
-7.50659
-1.03701
9.70728
3.95927
-3.30536
-6.98662
2.99069
6.56021
6.72312
-6.17382
0.446793
-0.153894
-2.97251
8.97583
-0.548397
-8.42743
11.7376
4.792
-8.47597
9.78424
-0.808407
9.41279
-11.7778
2.36501
0.316413
7.4052
-7.72161
-1.39878
-6.70508
8.10386
7.76868
-6.01139
7.77136
-7.45494
-12.1022
3.49485
-9.41978
-0.962628
-9.00219
8.753
0.24919
7.1265
-6.74576
-5.35641
-11.844
-3.55391
-6.85614
7.97593
-4.82639
-12.5012
8.48239
-5.87732
-0.240849
5.2835
-5.04265
9.2436
0.842332
-10.0859
1.56219
5.01947
-6.58166
-12.1302
0.77421
7.50929
-6.03689
6.65749
10.3306
-10.3306
10.6477
-15.0873
-10.794
-5.02775
-4.28304
9.31079
-5.81468
-3.51216
7.04862
5.79496
1.25944
-5.40179
4.14235
-9.23213
4.56456
6.20633
-9.77842
2.53967
7.23874
-3.50541
-5.13238
8.63779
-5.91622
5.05223
-9.09773
-10.8399
0.0424018
10.7975
7.78258
1.39384
-9.17642
10.3612
-10.1668
-0.194477
2.83282
-9.71996
8.13784
3.36127
4.65877
4.36956
-9.02833
9.43235
-0.116019
-1.61635
-5.91822
6.28726
0.246054
1.52803
7.01373
-8.54175
-9.75039
9.98581
-1.79872
-8.18708
7.28027
4.48795
-11.7682
-7.67319
12.5933
12.1551
-4.69474
-7.46035
-3.78999
-12.8575
16.6475
0.399775
0.504273
-0.904048
6.41152
-12.5774
6.16593
10.429
-8.92103
-1.50797
-10.4168
2.22532
8.19145
-11.6281
0.158859
1.11674
0.153863
11.15
-3.43566
-7.7143
3.88315
6.68971
-2.79962
9.21114
0.55818
-10.9749
-0.497882
-7.05125
6.14477
0.906473
-7.5311
-4.5911
-0.741323
-2.18278
-15.8012
17.6061
-1.80489
-9.29772
8.75005
0.547667
-3.85884
-7.03054
5.84324
9.51778
0.354343
0.768374
-11.4092
11.6092
-9.17552
-13.7398
7.97091
5.76884
-3.77634
15.7348
5.62362
6.53146
3.19658
-9.78848
1.92017
-10.5872
3.36106
7.22619
-3.97335
-10.2384
11.0692
-0.830774
-6.55335
-2.43038
2.88766
-8.04209
-8.78836
8.33996
0.448405
-2.5293
-5.52819
7.15997
-8.65603
8.65603
-0.364172
-8.42419
9.97135
4.46015
4.30584
-10.3075
6.0017
9.0729
8.73561
-8.79131
0.0557027
-5.10758
5.8007
-14.9372
4.79881
3.16761
7.71941
9.0207
-8.61054
-2.69467
-11.4321
6.36601
5.06611
-6.56091
-2.60786
10.3756
-10.3756
9.89815
-4.21767
-5.68048
-1.94093
6.89837
-8.20961
7.07391
1.13569
-9.57296
9.57296
7.19896
3.418
3.03284
4.92395
-7.95678
0.351688
-0.59519
7.03093
-5.46873
6.60306
-9.36626
3.57892
7.32893
-1.84258
-5.49096
-10.3205
11.3094
-0.988907
8.4568
1.44135
9.1396
0.329152
-9.46876
-11.8925
8.96041
5.03672
-15.2596
-10.771
5.80639
-7.68996
-4.20253
8.94262
-1.73092
-8.92588
11.3725
-16.4128
8.89721
3.28706
-12.0575
8.77042
7.89246
-5.85215
-7.28473
10.0579
-9.29121
2.49614
6.79508
-11.1935
-2.5463
-3.77482
-2.99153
6.76635
5.31712
6.81711
9.3504
-1.97516
2.19113
7.15927
-2.57286
6.35561
-2.75058
8.41322
8.70606
-8.07486
-0.631195
-7.73409
-3.20637
-3.62936
8.28813
-3.47413
14.0054
3.53353
-10.117
0.64609
2.74793
-6.52275
-9.85708
3.58312
7.26395
1.06257
2.69595
2.46386
-5.72222
3.25835
-9.33611
0.370716
8.9654
-4.27727
7.88503
-12.1124
7.95719
4.15526
-11.6741
-0.438341
10.3837
0.390183
9.30686
-7.69922
-1.60763
10.8623
-2.78208
10.245
-10.245
-7.72223
-1.56898
1.15708
6.42917
-7.58626
12.2931
7.8804
-6.72332
0.880397
7.75812
-8.63852
3.82841
5.05904
10.7565
-5.07838
-5.67808
-8.5858
0.86803
-3.15681
-5.65436
-9.78752
11.9991
-2.21162
-3.85751
-10.7173
-3.05517
10.3793
-0.724983
6.30751
-9.43485
3.12734
-6.98488
-4.08753
11.0724
7.98659
-0.292483
-7.6941
1.58547
8.26386
8.35596
0.234066
5.96329
-5.96338
-4.56679
-10.8701
4.32994
6.54012
-8.29409
7.10062
-7.02551
-7.86251
-3.00755
-9.00703
7.11836
1.88867
9.35711
-6.32432
-3.03279
-9.60991
8.63469
0.975223
7.95201
0.103553
0.368867
-0.25793
8.21643
-0.306124
0.306124
6.82656
3.6717
6.15337
-10.6736
4.52018
-0.397864
-5.54155
9.30082
-8.23884
-1.06198
4.824
4.47682
5.71762
5.81898
-11.3914
-5.0214
0.309101
0.922552
-10.1536
4.37644
5.77715
-7.91692
-2.0929
10.0098
8.46752
1.51829
-8.38764
-0.855788
-0.309883
-8.39548
5.64771
3.50922
-9.15693
-0.565441
-4.48749
5.05293
10.6284
-4.23028
-6.39809
0.776556
-9.78517
9.80814
2.02968
4.03646
5.77168
8.8311
-4.44631
-4.3848
2.54199
6.44232
11.9401
-11.9401
-13.6211
10.1512
4.9352
-15.9093
10.274
5.63527
-9.13328
8.30525
0.828033
9.42077
0.866736
-10.2875
4.77779
-7.76932
-8.44903
1.91275
6.53627
9.28978
-1.06189
-8.22789
10.3041
-3.71003
8.60975
1.69438
3.39802
7.62034
-1.79117
8.48945
1.13176
-9.62121
0.163806
9.19331
7.37037
-0.543812
8.75043
-3.61656
-5.13387
-0.00645803
-0.17628
-1.95252
-8.0189
1.02951
-7.84873
6.81922
9.78415
-11.3468
5.86442
-7.91764
0.465741
7.45189
-9.39462
1.47699
-10.1475
-4.02258
14.1701
-2.30383
10.7933
3.38002
0.595627
8.062
-8.65763
6.33859
0.322007
-7.99067
8.5863
-6.7832
2.807
-5.9846
-2.30528
8.28989
1.75429
-7.73889
-12.84
11.9392
0.900745
7.84997
-6.58694
4.77235
-6.61493
9.83147
-8.65469
-1.17678
8.05801
9.09729
-3.77404
14.2402
10.0552
-4.4075
4.98144
-2.34931
2.6314
6.41969
10.9953
-3.81404
8.16192
2.83342
-8.36466
9.23655
-0.871888
7.14038
0.634592
-7.77498
-7.93373
-2.20683
-1.08642
16.454
-9.7425
-6.71154
-13.5215
13.0329
0.488594
-9.15397
-0.596424
0.389275
-9.87624
9.48696
-6.08441
-0.936623
6.36938
-9.4172
3.04782
-7.59259
11.3602
10.6036
-5.79459
-4.80901
-6.98683
3.99952
2.98731
9.06793
-5.92435
-5.31894
-4.59302
-5.97198
-4.79904
1.91965
-2.70902
-3.426
9.55478
-6.12878
8.14526
-6.61724
10.8729
-10.8729
-8.36225
-0.809466
-13.0749
8.165
4.90986
-9.10709
-3.96777
6.1181
-5.81311
-0.304992
1.9729
7.09503
-7.97099
-1.50592
9.53206
1.10419
-10.6362
0.619172
2.45195
11.8997
-6.8677
-5.03195
0.928273
-0.967242
0.0389687
6.99061
-5.02017
9.07446
-1.9964
-5.4836
-6.1905
-2.78764
-5.82986
8.15288
-8.15288
0.621321
8.95387
-9.57519
5.47518
-3.27728
-6.50114
9.08665
-2.7585
-8.60753
0.422086
3.03197
-2.4128
14.1285
-8.59332
-5.53513
7.47899
-8.89667
-10.99
5.52552
5.46451
8.57179
-0.47138
-4.40954
-4.65203
-11.2573
-11.8419
9.26798
2.5739
-9.60086
-1.239
10.2041
-1.78318
0.587073
-0.587073
4.71444
5.66486
-4.9024
8.86978
-3.96738
-3.13779
-1.33943
8.93537
-7.59594
3.02833
7.90982
-7.85002
10.9343
-12.4161
-3.21005
6.04713
3.06882
-9.76402
-0.449244
3.4521
-8.10972
4.65762
11.4673
-3.3423
-8.12497
1.60127
-0.635816
-0.965456
0.801755
8.29031
9.75758
-10.1605
5.61777
4.54269
-12.8853
12.8853
-2.7491
10.0294
-0.493501
-7.19473
-9.44293
10.4839
-1.04096
-3.26783
-6.88171
0.938891
-1.26012
0.688962
-9.19731
8.50835
-9.04641
-5.49608
3.45603
3.88468
-7.34071
-3.71356
4.78897
-2.31734
7.31796
6.27916
-0.161064
-0.711293
7.01881
9.84104
-9.84104
7.53811
-4.08208
-16.1677
11.3463
4.82141
-5.67804
-5.98926
10.186
-4.19675
10.682
-8.80569
-1.87632
5.11206
5.56995
-6.83807
8.00963
-1.17156
-14.2525
8.41847
5.834
-5.44081
8.02283
-8.06374
2.62294
-5.85768
7.77043
11.0118
-7.23893
-3.77286
-1.36889
1.36889
6.0865
-15.6598
9.57327
2.03406
-2.77538
8.71855
2.29324
8.1293
-10.945
2.81565
2.3815
0.771415
-3.15292
8.99769
2.45904
5.19206
-5.19206
0.434731
7.2535
7.52727
4.37239
-9.82046
2.02182
7.79864
-8.20085
-1.5528
-8.40783
9.96063
7.78726
-6.78973
10.2932
-2.74769
-7.54553
-1.26658
3.97205
-6.09981
4.543
8.89349
-5.09914
-6.39301
5.99318
-8.5804
2.58722
0.628049
0.186082
-0.814131
11.6292
-8.15937
-0.0617999
8.22117