/*--------------------------------*- C++ -*----------------------------------*\
  =========                 |
  \\      /  F ield         | OpenFOAM: The Open Source CFD Toolbox
   \\    /   O peration     | Website:  https://openfoam.org
    \\  /    A nd           | Version:  9
     \\/     M anipulation  |
\*---------------------------------------------------------------------------*/
FoamFile
{
    format      ascii;
    class       volVectorField;
    location    "0.4";
    object      U;
}
// * * * * * * * * * * * * * * * * * * * * * * * * * * * * * * * * * * * * * //

dimensions      [0 1 -1 0 0 0 0];

internalField   nonuniform List<vector> 
97292
(
(0.131494 -0.911618 0)
(0.0379223 0.884422 1.8182e-20)
(0.0643755 -0.973719 -2.92264e-19)
(0.0106141 -0.946492 3.05459e-20)
(-0.1104 -0.935894 2.78573e-19)
(-0.0423163 0.876606 -2.06483e-21)
(0.00633826 -0.906193 -1.16685e-19)
(0.0235282 0.872386 -1.05534e-20)
(0.765576 0.582102 1.01685e-20)
(0.000119299 -0.812645 1.19103e-19)
(0.297171 -0.864188 0)
(0.25144 -0.849156 6.56422e-20)
(-0.0656837 -0.819623 0)
(0.0794136 -0.969645 2.04851e-19)
(-0.0452176 -0.959012 -9.2482e-20)
(-0.0569664 -0.856831 6.7579e-20)
(0.0455285 0.795941 -1.42573e-21)
(0.75186 0.706497 -8.42432e-20)
(0.857936 -0.0584309 -9.4594e-20)
(0.315718 -0.927792 -3.71126e-22)
(0.0430578 0.730563 -1.78795e-22)
(0.0414354 0.823988 -2.15091e-20)
(0.0504179 0.919404 -1.16074e-20)
(0.0307362 0.892888 0)
(-0.0341199 0.855391 -1.5172e-20)
(0.0537008 0.877959 1.74154e-20)
(0.0137174 0.968926 9.48003e-22)
(-0.0200161 0.971363 -2.97229e-22)
(0.0184982 0.804469 4.76495e-20)
(0.00184622 0.790602 1.56356e-20)
(0.596046 0.634878 -4.07605e-20)
(0.333561 0.887254 1.98293e-20)
(-0.0241439 0.971133 -1.07659e-21)
(0.886753 0.0783223 -8.42001e-20)
(0.300773 -0.969069 0)
(1.29038 0.716995 0)
(0.533121 0.901463 0)
(1.25589 0.788724 8.27695e-20)
(0.341531 0.737534 0)
(1.27774 0.725859 0)
(0.0142903 0.970838 0)
(0.0352975 0.889562 1.40045e-21)
(0.353224 0.678733 -5.43104e-20)
(-0.198501 -0.94549 1.66093e-19)
(0.104834 0.923219 0)
(1.15522 -0.212382 -2.81245e-20)
(1.02867 -0.441141 2.88719e-20)
(-0.0147558 0.873431 -1.74648e-20)
(0.021164 0.985551 -1.4133e-20)
(0.028159 0.846201 0)
(0.000223691 -0.955226 0)
(1.0916 0.436868 1.0207e-19)
(0.0777419 0.251534 0)
(-0.0287353 -1.0255 6.69181e-20)
(0.652815 -0.923213 1.64786e-19)
(0.535251 -0.54958 3.13025e-20)
(1.40638 0.791244 -5.48354e-20)
(0.0800302 0.832794 0)
(0.0432297 -0.838423 -1.44113e-19)
(0.792735 -0.380632 0)
(-0.0457997 -0.986416 1.9274e-20)
(0.61155 -0.553974 3.06583e-20)
(-0.0223974 0.857902 2.01009e-21)
(-0.0504312 0.861318 0)
(-0.011086 -0.988739 2.04109e-19)
(0.60956 -0.99749 4.76719e-20)
(-0.0575067 -1.00982 0)
(0.0727105 -0.909267 6.39556e-20)
(-0.0232997 0.826498 2.55431e-20)
(0.072996 -0.00783565 -4.19314e-20)
(0.000700654 0.914732 0)
(-0.0724204 -1.00937 0)
(1.21986 0.0263882 0)
(0.0453938 -0.958851 9.01555e-20)
(0.0282982 -0.00985846 0)
(0.0881178 -0.905869 1.49763e-19)
(0.929729 0.00705277 0)
(0.0129252 0.966718 -1.53465e-20)
(0.0595806 0.881725 2.24121e-20)
(0.296764 -0.755997 -6.94433e-20)
(0.0703392 0.952616 0)
(0.154976 -0.905154 -1.40504e-19)
(0.0174812 -0.777689 -6.07137e-20)
(0.00914103 0.939354 -2.99532e-22)
(0.250901 -0.98821 -1.69818e-23)
(0.429273 -1.08222 0)
(0.134896 0.12819 0)
(-0.026261 0.964423 2.98969e-20)
(0.44328 -0.408149 0)
(1.12705 0.87492 2.91004e-20)
(0.0245221 -0.0191134 -1.71099e-20)
(-0.00231822 -0.950131 -2.999e-20)
(0.266694 0.0401593 0)
(0.225242 0.270901 -3.0774e-20)
(-0.0228517 0.909659 9.62511e-21)
(0.0666384 0.830931 -1.91349e-20)
(-0.0714015 -1.03213 -2.00509e-19)
(0.145888 -1.17078 5.4643e-20)
(-0.0675976 0.847946 0)
(0.560952 -0.413588 0)
(1.02951 0.295859 0)
(0.411695 0.813972 2.88599e-20)
(0.347346 -0.694659 5.84543e-20)
(0.114481 0.127082 0)
(-0.0704684 0.941041 7.03426e-21)
(0.457255 0.556008 -2.21727e-20)
(0.0120571 0.939987 5.0864e-23)
(1.1976 -0.0722151 8.60448e-20)
(0.123022 -0.952107 -1.59348e-19)
(0.56719 1.01718 5.68407e-22)
(0.54517 -0.481144 -8.23268e-20)
(0.0331912 -0.903434 -4.56192e-20)
(0.0537763 0.882258 8.31446e-21)
(1.00228 0.425112 0)
(-0.0148264 -0.96917 6.88786e-20)
(0.122824 -0.938336 4.10993e-20)
(0.0689572 0.888014 0)
(0.00648349 -0.892628 7.71477e-20)
(0.0156717 0.901542 0)
(1.1683 0.195684 1.10424e-19)
(-0.116441 0.943944 -4.31158e-21)
(-0.0166477 -0.970267 0)
(0.0178276 1.05055 -1.47803e-20)
(0.129117 0.0803429 -1.89425e-20)
(-0.0525199 -1.01131 5.28178e-21)
(0.217469 0.633384 2.88451e-22)
(0.106999 0.0565904 -1.63114e-20)
(-0.101853 -0.977017 0)
(1.3552 -0.0621134 0)
(0.198042 0.657397 -1.99917e-20)
(1.15586 0.66823 -2.03886e-21)
(0.0857541 0.79797 -1.38179e-20)
(0.0362878 0.931806 0)
(-0.0285414 0.808662 3.99518e-22)
(0.583536 -0.509796 -3.13103e-20)
(0.234834 -0.98106 0)
(-0.00044875 0.934033 -3.3015e-20)
(0.878738 -0.422839 -6.78776e-20)
(0.146517 0.43909 0)
(0.269102 0.0501906 1.76032e-20)
(-0.0274831 -0.970558 -6.46675e-20)
(0.00782618 0.984338 2.02769e-20)
(-0.100122 -0.986129 1.39062e-19)
(1.03618 0.722294 0)
(-0.0162237 -0.952394 0)
(1.02184 0.680361 -1.43997e-20)
(0.239428 -0.956186 -3.81935e-20)
(-0.053386 0.935335 -2.33867e-20)
(0.717109 -0.369129 5.05843e-20)
(0.0369682 0.872872 -8.60083e-22)
(0.112182 -0.783649 -2.28754e-19)
(0.007902 -0.978903 8.96341e-20)
(0.0828783 -0.964455 1.57169e-19)
(0.425199 -0.958278 9.491e-20)
(-0.00652842 -1.00301 0)
(0.896152 0.724941 1.86904e-20)
(0.0675961 -1.13465 -5.56695e-20)
(-0.0591767 0.865661 -1.07144e-20)
(-0.0990038 0.93897 1.69752e-20)
(0.518931 0.542461 -2.21623e-20)
(0.0681062 -0.930899 -3.57036e-20)
(0.00162412 0.911169 -2.73555e-22)
(-0.0718838 0.843691 3.6316e-20)
(0.0336312 -0.0120239 0)
(0.870832 0.760613 2.54583e-20)
(-0.0896919 -0.808635 8.09991e-20)
(0.0962326 -0.906506 5.45678e-22)
(0.0353718 -0.0204561 0)
(0.136098 -1.09367 1.61599e-19)
(0.470972 0.591951 1.19963e-20)
(0.66426 -0.421899 -1.02482e-19)
(1.29191 0.798818 0)
(0.0748032 -0.94576 5.79825e-20)
(1.18327 0.31935 -7.91984e-20)
(0.00649556 0.9119 0)
(0.557237 -0.493334 -1.12139e-19)
(1.08223 -0.450308 -8.3478e-20)
(0.751506 -0.419404 0)
(0.139572 -0.330353 -1.11433e-20)
(1.07306 0.665335 -5.73272e-20)
(-0.0281347 -0.987874 -1.51376e-19)
(1.46765 -0.384019 -9.13903e-20)
(0.0582866 -0.0427255 -1.9515e-20)
(-0.0263426 0.882026 -1.1803e-20)
(0.00799685 -0.945802 0)
(0.00568731 -0.863261 0)
(0.0397003 -0.0337717 0)
(-0.0835906 -0.881963 5.40186e-20)
(0.0772868 -0.932001 6.33353e-20)
(0.097726 -0.888192 1.30722e-19)
(1.34481 -0.230667 2.20461e-22)
(-0.0235135 -0.892708 1.09913e-19)
(0.0239284 0.87689 1.14101e-20)
(0.499617 0.516862 -2.52169e-20)
(0.0011568 -1.03208 9.43885e-20)
(1.14256 1.12556 2.98587e-20)
(-0.0740139 0.920457 0)
(0.0113261 0.853619 0)
(-0.0127912 -0.943891 -2.44049e-19)
(0.408676 -0.526836 -1.382e-19)
(0.810379 -0.462223 0)
(0.269653 -0.429014 0)
(0.0293244 -0.96636 -8.54733e-21)
(-0.0177149 -0.915131 -1.42396e-19)
(-0.037979 -1.00313 0)
(-0.0356095 -0.912615 9.31203e-20)
(0.98971 0.259527 0)
(0.149859 -0.647566 1.2098e-20)
(0.368361 -0.504084 -2.70239e-22)
(1.26294 0.192074 0)
(-0.00141526 0.884922 8.91741e-22)
(0.155249 0.861664 4.10227e-20)
(0.213365 0.887863 1.90506e-20)
(0.0223894 -1.01107 -4.43417e-20)
(1.01052 0.987289 0)
(-0.0734847 -0.967743 -1.68048e-19)
(-0.0172716 0.831753 0)
(1.48667 0.123416 7.31711e-20)
(-0.0334291 0.938676 0)
(-0.00303914 0.891458 0)
(0.0661238 -0.0106073 -5.12697e-21)
(-0.0629479 0.952537 -1.08131e-21)
(-0.0336821 0.902664 0)
(0.553238 -0.399938 4.63038e-20)
(0.883852 -0.552165 -4.7513e-20)
(0.0429565 0.882752 -3.47474e-21)
(0.0300032 -1.01926 -1.12336e-19)
(0.0442455 -0.899452 -4.72598e-20)
(0.024868 0.980643 3.80286e-21)
(1.15044 -0.569117 0)
(-0.0348762 0.930056 0)
(0.0814008 -0.856437 0)
(-0.0524164 -1.03462 -1.31495e-20)
(0.639909 -0.360456 -1.03471e-19)
(0.710896 -0.364448 4.77349e-20)
(0.0266327 0.912734 4.90325e-20)
(0.864354 1.01127 1.56103e-20)
(0.0745488 0.97566 -4.77246e-20)
(0.107818 0.961959 3.21666e-20)
(1.09016 0.825799 -2.7153e-20)
(0.0534636 -1.00282 -1.60776e-19)
(0.000520062 -0.976571 -9.15147e-20)
(0.0637894 -1.0429 -7.2899e-20)
(0.0059628 0.953042 2.71776e-21)
(0.114292 -0.906424 0)
(0.870039 -0.632434 -2.60973e-20)
(0.578002 -0.803915 1.87951e-19)
(-0.0726022 -1.02164 -7.36707e-20)
(0.0974093 0.432842 -1.36772e-20)
(-0.060687 -0.882436 -1.36958e-19)
(-0.0116159 -0.876395 0)
(0.0797769 0.881966 0)
(0.534151 0.54537 -5.4785e-21)
(-0.0904274 -1.00144 -7.11853e-20)
(0.0528551 -0.852887 -1.14495e-19)
(0.168328 -0.895402 9.11881e-20)
(-0.0919483 0.9871 0)
(0.0623401 0.464605 0)
(1.45493 0.170722 -7.1924e-20)
(-0.108614 0.934023 2.15101e-20)
(-0.066633 -1.02071 0)
(0.0295294 0.879339 0)
(-0.0137786 0.923535 0)
(0.549309 -0.524717 0)
(0.504113 0.955916 0)
(0.0103284 -0.915762 0)
(0.0148503 -0.947034 1.17001e-20)
(0.128599 -0.965339 -4.3806e-20)
(0.0224457 -0.9801 0)
(-0.0198018 -0.962398 4.02143e-20)
(0.00580763 0.983312 1.69034e-20)
(1.19271 0.519045 5.52011e-20)
(0.0673431 0.90573 -2.83364e-20)
(0.0129246 -0.857862 0)
(0.00960712 -0.930503 -8.69691e-21)
(0.410824 -0.71619 -5.72823e-20)
(1.02976 0.0660259 8.91397e-20)
(0.0557765 -1.06884 1.59065e-19)
(0.0148914 0.946 3.63527e-22)
(1.10647 0.359084 -6.63857e-20)
(1.19242 -0.0203826 1.03312e-19)
(0.704536 0.84736 -3.40598e-20)
(0.00636934 0.8891 1.15818e-20)
(0.605888 0.691508 -1.4767e-20)
(0.275426 0.627233 -5.70356e-20)
(-0.0451894 0.932431 -2.08217e-20)
(0.0503412 0.872829 -1.42419e-20)
(0.0250328 0.815182 0)
(-0.0512107 0.874793 1.18421e-20)
(-0.0810103 0.923832 -8.83201e-22)
(0.0674905 0.839096 0)
(0.686733 -0.445092 0)
(0.0159038 0.885152 -2.35653e-20)
(0.542238 0.655058 4.2999e-20)
(1.31905 -0.302412 8.64746e-20)
(0.0780748 -1.02783 -3.01231e-20)
(0.0462167 -0.968382 0)
(-0.0255848 -0.853913 -1.88169e-19)
(-0.0579186 -0.979124 -9.06038e-22)
(0.317888 0.698635 5.40893e-20)
(0.737179 -0.303206 -1.32132e-20)
(0.0458302 -0.842714 7.6135e-20)
(0.00695327 0.850153 -9.10297e-21)
(0.0156054 -0.865443 -1.33286e-19)
(-0.0194627 0.935837 -8.93542e-22)
(0.657262 -0.842536 -3.34669e-20)
(-0.034781 0.931501 0)
(0.150466 0.932983 0)
(0.0466685 0.850278 -7.26498e-21)
(0.245391 0.762121 4.17804e-20)
(-0.0251316 0.900002 2.27028e-21)
(0.0481355 0.815038 0)
(0.323325 0.865153 0)
(0.0514637 -0.0150082 0)
(1.37003 0.0292967 -1.09968e-19)
(0.0982789 0.980213 -3.23125e-20)
(1.30869 0.0985736 3.4895e-20)
(-0.0155792 0.824837 0)
(0.469283 0.347072 -4.31418e-20)
(0.075204 0.859007 -2.13743e-20)
(0.601941 -0.964445 -2.71799e-20)
(1.16224 0.141197 0)
(0.0585341 -0.0075851 0)
(0.221071 -0.603688 2.23986e-20)
(0.0876921 -0.892864 -1.95037e-19)
(0.00157134 -0.957435 0)
(0.0342875 -0.666175 -1.8962e-20)
(1.15258 0.0645191 -4.49257e-20)
(1.15591 0.227082 -1.13662e-19)
(0.0253705 -0.999468 4.17612e-20)
(-0.0211321 -0.978216 -1.71724e-19)
(0.0220879 -0.979026 -5.93606e-20)
(-0.0621403 -0.971232 -7.24074e-20)
(-0.122694 -0.932958 2.08554e-19)
(0.0387507 0.0315607 -4.71225e-20)
(-0.0219701 0.888645 0)
(0.0696114 0.956612 -8.63155e-21)
(-0.0325273 -0.876484 1.59767e-19)
(0.0179592 -1.02789 1.92578e-19)
(-0.0262866 0.743653 1.90836e-20)
(-0.0288169 0.946071 -8.17875e-22)
(0.0400343 0.925906 4.11877e-21)
(0.049444 0.29085 2.48876e-20)
(-0.0216215 1.03818 1.2892e-20)
(-0.00758105 -0.910794 -9.87742e-20)
(-0.0195646 0.821281 0)
(0.0219165 0.927619 -1.39538e-20)
(0.0448823 0.926692 0)
(-0.0291814 -0.886303 5.29933e-20)
(-0.0625045 -0.947749 -2.72512e-21)
(0.0751546 -0.944327 1.17043e-19)
(0.378808 -0.840866 0)
(0.150824 0.935583 3.38527e-20)
(0.0109581 -0.95741 -6.46695e-20)
(-0.0209372 0.823818 8.07829e-23)
(-0.0376319 0.760947 -5.97958e-21)
(-0.00340208 -0.890529 0)
(-0.0571379 0.859517 -1.28792e-20)
(-0.217542 -0.731793 1.91146e-19)
(-0.0935421 -0.838127 -6.02175e-20)
(0.141025 -0.912294 -6.99638e-20)
(-0.0503027 0.877564 8.27601e-21)
(0.035654 0.925618 -9.41043e-21)
(-0.0838489 -0.906914 0)
(-0.0227756 -0.926715 2.63671e-20)
(0.0589725 -0.911788 6.70759e-20)
(0.482159 -0.566475 1.7736e-19)
(0.00526279 -1.05889 1.92313e-19)
(0.163954 -0.173281 -4.64124e-20)
(0.311586 -0.65925 4.7651e-20)
(0.914571 -0.050852 0)
(0.0164621 0.924876 1.85161e-21)
(1.3601 -0.0411517 4.82188e-20)
(-0.0198022 0.913598 -1.63944e-21)
(-0.00857748 0.881637 -6.68446e-21)
(0.289757 -0.669534 0)
(0.972051 -0.668968 0)
(0.467513 1.07847 -3.31185e-20)
(-0.0273632 -0.968955 0)
(0.0410421 -0.839966 1.01312e-19)
(0.191655 0.596925 0)
(-0.191872 0.981402 0)
(0.722363 -0.276026 0)
(1.11476 0.167297 -1.13355e-19)
(0.0489534 0.905856 -1.16221e-20)
(0.125314 0.664598 -6.72759e-22)
(-0.0181927 -0.897672 -2.43493e-20)
(0.119864 -0.9946 -7.88666e-20)
(-0.0391683 -0.960095 5.59055e-21)
(0.0574639 -0.00264762 1.79744e-20)
(0.00866919 0.875744 6.85946e-21)
(0.106008 0.636406 0)
(-0.0300258 -0.77877 0)
(-0.0411739 0.873787 -1.6244e-20)
(-0.00887345 0.920717 7.51165e-21)
(-0.00884114 -0.958706 0)
(1.12443 0.770955 3.96807e-20)
(0.059488 0.935558 1.93115e-21)
(-0.0351209 -1.00828 -7.46382e-20)
(-0.0398456 -0.965584 0)
(-0.0459056 0.940947 0)
(0.035683 -0.973592 -2.115e-19)
(0.330771 -0.992668 1.59694e-19)
(0.692278 0.714285 -3.73767e-20)
(0.516023 0.714693 0)
(0.129845 0.858333 -3.90189e-20)
(-0.134432 0.974428 8.12356e-22)
(0.401413 -0.922365 -5.2083e-20)
(0.00237102 0.870649 -5.80433e-21)
(-0.0680376 0.91769 -2.40418e-21)
(0.0715837 0.144116 0)
(1.32131 0.645872 0)
(1.34009 0.669097 -3.70625e-21)
(0.492983 0.368257 4.011e-22)
(-0.0114716 -1.00759 -7.19571e-20)
(0.0592307 0.903717 -2.17857e-20)
(0.846002 -0.701679 0)
(0.0106263 -0.975585 -1.33525e-19)
(-0.07076 -0.873638 -3.54472e-20)
(0.0515267 0.117022 -9.52896e-21)
(0.640317 1.06516 -2.19866e-20)
(-0.0606979 0.933146 0)
(0.00347903 -0.818093 -6.09454e-20)
(0.216221 -0.662042 -1.30271e-22)
(0.0159235 -0.953982 -1.3163e-19)
(-0.080616 -0.991534 -4.11328e-20)
(0.299944 0.223929 2.52017e-20)
(1.25996 0.550664 -7.18346e-20)
(0.290505 -0.843744 9.17473e-20)
(0.0761525 -1.0369 0)
(0.420134 0.213945 2.27278e-20)
(1.24042 0.919604 3.36476e-20)
(1.37643 0.545769 4.78427e-20)
(-0.0446708 -0.968779 7.96439e-20)
(-0.00392757 -0.780863 -2.5957e-19)
(0.120977 0.263408 -2.63299e-20)
(0.0496519 0.89848 0)
(0.121774 0.715446 7.31668e-21)
(-0.0460945 0.928135 -3.33197e-20)
(-0.01592 0.826655 2.99062e-20)
(0.0501412 0.894034 -4.42302e-21)
(0.787678 -0.24141 1.46124e-19)
(0.230792 -0.729648 -1.21915e-19)
(0.0428218 -0.939872 6.73743e-20)
(0.281631 -0.843235 1.27822e-19)
(1.29627 0.13426 0)
(0.133955 0.0989416 -2.42943e-20)
(0.0602805 -0.951331 1.08816e-19)
(0.00845875 -0.745639 1.15157e-20)
(0.684994 -0.865685 -6.08195e-20)
(0.185415 0.689775 1.12037e-20)
(-0.0864167 -1.05579 0)
(1.39686 -0.304202 0)
(1.26207 0.848496 3.84767e-20)
(1.13369 -0.521816 8.85162e-20)
(0.00133186 0.872563 1.59704e-20)
(0.013182 -0.9125 -2.1358e-19)
(1.06754 -0.727368 9.88756e-20)
(-0.0189087 0.893653 3.78053e-21)
(-0.196768 0.866901 8.77842e-21)
(0.0530671 0.759922 1.20486e-23)
(0.0747855 -1.00867 1.3182e-19)
(0.00154918 0.907529 0)
(0.17411 0.0695511 1.01726e-20)
(0.0585198 0.977052 1.63183e-20)
(-0.032034 -0.96549 8.49709e-20)
(0.0218644 -0.99436 0)
(0.973394 0.692764 2.62747e-21)
(0.141125 0.0994208 2.19783e-20)
(0.0259817 0.033812 3.17867e-20)
(-0.0729603 0.866018 2.40802e-20)
(0.428813 -0.647788 0)
(-0.153036 0.973769 -8.05961e-21)
(-0.0105806 -0.880532 8.15164e-20)
(0.0901867 -0.962148 0)
(0.154757 0.0504683 3.00846e-20)
(0.0180709 -1.04079 6.12823e-20)
(-0.0756216 -0.948056 0)
(0.0114627 0.947932 -1.89743e-21)
(1.23766 0.0384572 2.98141e-20)
(-0.0667176 -0.977905 1.30238e-19)
(-0.0254831 -0.958963 1.90723e-19)
(1.03672 0.124775 -4.66008e-20)
(1.19286 0.14042 -5.25439e-20)
(-0.0197967 0.914171 3.3717e-21)
(-0.242038 -1.03861 0)
(-0.016107 0.947162 -1.28316e-21)
(-0.110894 -0.904579 -9.64506e-21)
(-0.126589 1.02319 0)
(0.0545352 0.964614 2.71936e-24)
(1.07064 0.0990694 1.08517e-19)
(0.154226 -0.174057 2.97757e-20)
(1.15123 0.199416 2.22901e-20)
(-0.0658459 -0.979906 -6.1147e-21)
(-0.0352243 0.921496 5.14715e-21)
(-0.00682028 -0.980299 0)
(0.414861 0.655152 2.47271e-20)
(0.00652674 0.942205 2.18099e-22)
(0.0440682 -0.929174 5.9e-20)
(0.071622 0.936481 1.56262e-20)
(-0.0104899 0.888591 0)
(0.0312879 -0.847351 5.97676e-20)
(0.0612741 -0.876547 0)
(0.414309 0.383178 -2.60067e-20)
(0.194692 -0.0413778 0)
(0.404334 0.384913 2.63058e-20)
(0.117116 0.214432 -1.77887e-20)
(-0.0366174 -0.937693 1.88181e-20)
(0.00966277 -0.913556 -1.02438e-19)
(1.11433 0.0409588 -4.29916e-22)
(-0.0560494 0.843719 0)
(0.0141606 0.90741 -1.88467e-20)
(-0.0788979 -0.97633 -4.19445e-20)
(0.0384512 0.838747 -1.31401e-20)
(0.450736 0.970747 2.21415e-20)
(0.0785008 0.93262 0)
(0.0396411 -0.966875 -7.16046e-23)
(0.0727863 1.03915 -6.94071e-22)
(-0.133019 0.867452 0)
(0.509265 -0.506183 0)
(0.0230262 0.971198 1.74863e-20)
(0.0463818 -0.959259 1.45304e-19)
(0.01871 0.902152 1.19514e-20)
(0.0517496 0.919358 1.43057e-20)
(-0.0209829 0.933488 -4.19945e-20)
(-0.00398974 -0.958986 3.68723e-20)
(0.792616 -0.354223 -6.21884e-20)
(-0.133748 0.873213 -6.54413e-21)
(0.725153 0.882779 2.34182e-20)
(0.0317414 0.0243616 7.63756e-20)
(0.00618742 0.932309 1.60276e-23)
(0.0549486 0.755832 0)
(0.0796136 0.853366 5.09178e-21)
(-0.0481251 0.912774 7.03244e-21)
(0.0443058 0.922485 -1.38729e-20)
(-0.0535541 -0.867267 -3.86176e-20)
(0.726101 0.820099 0)
(0.0607975 0.222224 0)
(0.796352 0.936485 3.65857e-20)
(0.605719 -0.779392 5.38469e-20)
(0.0150046 -0.979274 0)
(0.103573 0.790212 -1.06072e-20)
(-0.00317713 -1.08221 0)
(1.18574 -0.457494 5.92602e-21)
(-0.100677 -1.02567 0)
(0.0845181 -0.898877 -7.12293e-20)
(-0.0219622 0.85209 1.0279e-20)
(0.271753 -0.878299 4.12123e-20)
(1.02322 0.806409 -1.33366e-20)
(-0.00283681 0.867814 3.69677e-22)
(0.275491 0.126012 0)
(0.452018 -0.710098 -6.83351e-20)
(0.0287787 -0.855599 -8.68012e-20)
(0.0916825 0.850663 2.68363e-20)
(0.029694 -0.99631 0)
(0.499705 -0.870222 -1.61814e-20)
(0.0237579 0.939679 2.39377e-20)
(0.0992188 -0.90322 -8.65843e-20)
(0.00805707 -0.966415 0)
(0.0375942 0.865098 0)
(0.222366 -1.14436 4.27169e-20)
(0.0159591 0.901306 0)
(-0.147469 -0.862864 2.1278e-20)
(0.18134 -1.00589 -1.21083e-19)
(0.00684527 0.905903 -2.26713e-20)
(0.188048 -1.05207 9.1862e-20)
(-0.092605 1.09831 -2.6727e-21)
(0.0406403 -0.0232438 0)
(0.0577651 0.881152 0)
(0.40008 -0.310101 5.06467e-20)
(0.0563773 -0.0204462 0)
(0.0764109 0.799712 -2.04601e-20)
(0.0280185 1.07511 -1.84484e-21)
(0.110609 0.132264 0)
(0.0271364 1.01173 7.87067e-21)
(1.1179 1.06118 6.35103e-20)
(0.42392 0.866075 6.53661e-20)
(1.54421 0.295728 0)
(1.14667 0.98086 0)
(0.0123048 0.827426 9.37724e-21)
(-0.0785209 -0.912431 -5.38023e-22)
(-0.096629 0.72445 3.78316e-22)
(-0.0454208 0.880342 -2.89819e-21)
(0.104645 0.861142 0)
(0.0718934 -0.0157617 3.9613e-20)
(0.00848989 0.795178 0)
(-0.0360415 0.928639 0)
(1.21107 0.0774206 -1.19016e-19)
(-0.0367892 -0.970529 0)
(-0.0117792 0.834226 1.3634e-20)
(0.0481247 0.771865 0)
(0.0142526 -0.914009 1.52267e-19)
(0.114873 0.105381 0)
(0.996746 0.531118 -2.92802e-20)
(0.300595 0.592744 -1.01966e-20)
(1.1236 -0.597536 -1.27174e-20)
(1.01507 0.722783 9.53642e-22)
(0.610102 -0.938129 -6.10901e-20)
(0.554963 0.930058 0)
(0.427306 -0.662876 0)
(0.522157 -0.441573 6.84782e-20)
(0.239593 -0.907651 0)
(0.8618 0.863784 -6.41943e-20)
(0.744768 -0.142115 -1.01351e-19)
(1.02284 0.308332 -4.57457e-20)
(0.10232 0.854939 -1.84007e-20)
(0.0180448 -0.179943 -2.41968e-20)
(0.0114593 0.851202 6.05176e-21)
(0.0611353 -0.982241 9.80316e-20)
(0.301746 -0.703617 -7.03744e-20)
(-0.000843129 -0.986999 2.03019e-19)
(0.08249 0.736576 2.55612e-20)
(0.0886879 -0.655056 6.42742e-20)
(0.0546876 -0.923448 0)
(0.193897 0.00602056 4.4972e-20)
(-0.0509431 -0.881923 -1.95166e-19)
(-0.0855481 -0.874273 0)
(0.0141755 -0.898952 5.72698e-20)
(1.00884 0.0585461 -5.02823e-20)
(0.0577343 -0.0829591 0)
(0.0985702 -0.71213 -3.67619e-20)
(-0.0360712 -0.929891 -1.17212e-19)
(-0.00870062 0.67857 4.13115e-20)
(-0.033876 0.916427 -1.72793e-20)
(0.145843 -0.0319487 4.42934e-20)
(0.00721161 0.865671 0)
(-0.0129466 -0.968121 -3.09753e-22)
(0.0383625 -0.916086 0)
(-0.020128 0.862063 0)
(0.488953 -0.546752 -3.21971e-20)
(0.222538 -0.54825 1.29862e-19)
(0.949022 0.990168 0)
(1.17125 -0.0709261 -6.21784e-20)
(0.0330381 1.09316 -5.72436e-22)
(0.0357472 0.922006 -8.21379e-21)
(0.0288567 0.14878 -4.06653e-20)
(0.725771 -0.460109 -1.18626e-19)
(0.0691176 -0.95598 0)
(0.233391 -0.86911 -4.00316e-20)
(0.0144059 0.0724845 -2.1392e-20)
(0.0658282 0.798228 0)
(0.00663674 -1.00212 -7.50904e-20)
(0.14311 -1.01411 -7.39998e-22)
(0.0125877 -0.974558 -4.844e-20)
(0.0708228 -0.875737 -4.38206e-20)
(-0.0242668 0.877234 1.1413e-20)
(0.0595712 0.889969 7.32956e-21)
(0.317043 -1.18407 -6.93956e-20)
(-0.019096 -1.01269 5.06536e-20)
(0.0455915 0.00124276 -4.15038e-20)
(-0.0533169 0.888519 0)
(0.023823 0.00657881 3.55839e-20)
(-0.00196501 -0.913523 3.56702e-20)
(0.490228 -0.798254 0)
(0.0780021 -1.03368 -3.54508e-20)
(0.0855997 0.855664 8.24309e-21)
(1.40671 -0.0434753 3.557e-20)
(-0.0722389 0.940839 -5.00037e-21)
(0.00762197 0.963072 -2.44656e-20)
(0.0653519 0.91487 2.32761e-20)
(-0.0320991 -1.00354 -1.52535e-19)
(0.287741 0.146216 0)
(-0.112741 -0.922263 -1.5805e-19)
(0.147977 0.0115919 2.3395e-20)
(0.0077024 -0.926159 0)
(0.521488 -0.383678 6.65093e-20)
(0.516435 -0.343541 -4.89281e-20)
(0.997972 -0.0255619 0)
(0.0256329 0.933982 1.46326e-20)
(0.616162 -0.9888 6.99089e-20)
(0.0589984 -0.855578 -1.34081e-19)
(0.102939 -0.93339 0)
(-0.00144929 -1.00468 -9.71035e-20)
(1.51751 -0.048811 0)
(0.200715 -0.221162 4.12142e-20)
(0.0392504 0.969328 1.67785e-20)
(-0.0231502 0.90602 0)
(0.0457598 0.981205 0)
(0.0493611 0.941062 -1.03417e-20)
(-0.0424034 -1.0228 -7.50346e-23)
(0.451625 -0.788681 0)
(-0.0570564 0.848518 0)
(0.0537931 -0.949603 -7.96687e-20)
(0.130414 0.0309078 0)
(0.121047 0.703267 -5.12062e-20)
(0.0131985 -0.97736 -2.26134e-19)
(-0.0347607 -0.986963 1.96635e-20)
(1.23622 0.517317 0)
(0.111656 0.0149268 0)
(-0.0813731 -1.06356 1.25858e-19)
(0.0402507 0.974678 -5.62672e-21)
(-0.0228606 -0.97414 1.42185e-19)
(0.811559 0.597911 3.54235e-20)
(0.320648 -0.739371 0)
(-0.0166271 -0.901763 0)
(0.0197409 0.954083 0)
(-0.0242576 0.878043 -1.90033e-21)
(0.708651 -0.653022 -1.45226e-20)
(-0.0516548 0.874419 0)
(0.0468225 0.36542 0)
(1.12461 -0.0123911 -6.11276e-20)
(0.0492819 -0.958605 -1.48025e-19)
(-0.14523 -0.959136 1.47092e-19)
(0.0254349 -0.920856 0)
(0.0356917 0.374532 -2.39239e-20)
(0.0321488 1.04044 0)
(1.03309 -0.0127354 1.24318e-19)
(0.0990211 0.00497971 -3.59595e-21)
(0.00961738 0.00666594 1.14002e-20)
(-0.00522031 -0.924764 1.37946e-19)
(0.562109 -0.491223 1.3642e-19)
(0.039215 0.307296 -2.68604e-20)
(-0.0364773 0.916349 -7.09529e-23)
(0.900121 -0.32503 1.15047e-19)
(0.653796 0.831201 1.35533e-20)
(1.02748 -0.0200621 5.80779e-20)
(0.0166734 0.750732 -1.13718e-21)
(-0.0120686 0.733274 -2.81052e-20)
(0.0596299 -1.05295 -2.18465e-19)
(-0.148605 0.895802 0)
(0.357672 -0.480726 1.742e-19)
(-0.0116027 0.843078 -1.75431e-20)
(-0.0168089 0.829262 4.51129e-22)
(0.0563633 -0.995333 8.20237e-20)
(0.0441048 0.977386 -1.29483e-20)
(1.39952 -0.623504 9.54976e-20)
(0.13159 0.0747153 0)
(0.0351491 -0.944283 -2.03266e-22)
(-0.0345118 -0.974549 -4.49409e-20)
(0.0148458 -0.917573 0)
(0.551653 0.772501 1.22747e-20)
(0.000698893 -0.924504 -6.24144e-20)
(0.731302 0.910308 0)
(0.00568994 -0.952589 0)
(0.028808 0.756767 0)
(0.101293 -0.95838 8.70607e-20)
(0.25675 -0.939853 3.61313e-20)
(-0.0352634 -0.969295 3.35733e-22)
(0.0230645 0.983383 0)
(0.01882 0.00325351 8.55357e-22)
(0.747901 -0.568333 1.21669e-19)
(1.01427 0.0672305 6.08176e-20)
(1.33773 0.197465 -6.55283e-20)
(0.0432018 -0.913785 7.7105e-22)
(-0.0540928 1.00256 0)
(-0.11455 -0.88413 0)
(0.0750878 -0.986197 -5.01358e-20)
(-0.0328686 0.891258 0)
(0.326781 -0.564928 6.5767e-20)
(-0.0125 -0.930667 -1.75403e-20)
(0.887841 0.574426 -2.06882e-20)
(-0.00119861 1.00327 0)
(-0.0533925 -0.985886 6.7921e-20)
(0.226091 0.898612 1.49929e-20)
(-0.0799584 -0.920448 1.70001e-19)
(0.0718331 -1.02843 -1.48649e-19)
(0.0247113 0.882521 0)
(0.0497079 0.00323879 2.13622e-20)
(0.0446285 -0.956359 0)
(0.197544 -0.671123 -6.6835e-20)
(0.0587511 -0.908699 0)
(-0.10547 -0.914463 6.26024e-22)
(0.0655845 0.898417 -1.29447e-20)
(0.0654989 -0.933315 -3.74273e-20)
(1.12199 -0.248306 1.00217e-19)
(0.0870129 -0.91133 -8.64962e-20)
(0.0262537 -0.997264 7.86347e-20)
(-0.00620167 0.848989 3.29922e-20)
(1.16226 -0.131688 0)
(0.716742 -0.338553 -6.72981e-20)
(-0.0236601 0.98674 -8.85395e-21)
(0.0328225 -1.00906 6.00497e-21)
(-0.0629751 0.990817 0)
(-0.0582215 -0.948441 -1.78404e-19)
(0.000939803 -0.976896 9.68224e-20)
(0.021359 0.251152 -1.60841e-22)
(1.18436 0.400605 -5.57986e-20)
(-0.0714678 -1.00505 -9.32869e-21)
(0.0168441 -0.963957 -7.32338e-20)
(1.02498 0.123205 -9.44816e-20)
(-0.0750871 0.919875 0)
(0.516802 -0.458172 0)
(0.0944565 0.680324 6.9928e-20)
(0.0358621 0.895523 -1.23991e-20)
(-0.211085 -0.772615 0)
(1.1052 0.671112 6.41346e-20)
(0.0177595 0.912793 -2.07944e-20)
(0.0535583 0.816516 3.07187e-20)
(0.0191776 0.762747 0)
(-0.014806 0.988478 -1.46825e-20)
(0.00846084 0.910939 6.77249e-21)
(0.572045 -0.741228 1.08381e-19)
(-0.0588634 -0.943529 7.10238e-20)
(1.30259 0.414556 0)
(0.133381 -0.939218 5.94621e-20)
(0.118363 -1.03176 0)
(0.0159816 -0.837099 0)
(0.367667 0.59341 0)
(0.0287797 -0.883359 0)
(0.62868 -0.568184 -1.05216e-19)
(1.09911 0.121947 -5.14969e-20)
(0.380889 0.327075 0)
(0.631296 -0.321988 -5.03294e-20)
(-0.0239187 0.86211 -3.03103e-20)
(0.37039 -0.635465 -3.56431e-20)
(-0.0267207 0.841179 0)
(0.360721 0.516158 4.54883e-20)
(1.46621 0.342046 -4.36267e-20)
(-0.0459825 0.896163 1.09893e-20)
(0.0191526 0.950357 -1.69666e-20)
(-0.00798789 0.94446 5.38877e-23)
(-0.0879246 0.924868 0)
(-0.0239669 -0.910856 0)
(0.0275683 0.979577 1.90123e-20)
(0.542521 -0.466139 4.88126e-20)
(0.0672259 0.941237 2.93021e-22)
(0.585679 -0.846987 0)
(0.0239153 -1.0132 1.50066e-19)
(0.56899 1.00513 1.04992e-20)
(0.940543 0.790317 6.07087e-20)
(-0.0488717 -0.905265 2.10425e-20)
(0.0143448 -0.878907 -7.25206e-20)
(1.42208 0.495885 0)
(0.104421 -0.992267 6.01961e-20)
(0.0080085 -0.963361 1.81475e-20)
(1.01938 1.07508 3.71748e-20)
(0.251794 0.733256 4.00531e-20)
(1.14603 1.06352 2.48021e-20)
(-0.0773203 -0.979833 -6.75605e-21)
(0.112247 -0.940383 -3.40009e-20)
(0.145283 0.59739 9.61223e-21)
(0.0167004 0.839258 1.59765e-22)
(0.0893031 1.0004 -1.38664e-20)
(1.05977 0.4338 0)
(0.631052 0.0706751 4.46074e-20)
(-0.0299788 0.841353 0)
(-0.0850745 -0.961377 -1.27646e-19)
(0.698217 -1.00921 0)
(0.296382 0.626897 -2.24291e-20)
(0.983536 1.09821 1.96313e-22)
(0.258547 -0.102147 -3.89276e-20)
(0.557941 -0.424749 0)
(1.05539 0.230737 1.24773e-19)
(-0.0514725 0.895022 -1.49874e-21)
(-0.00252813 -0.989098 2.44562e-20)
(1.11712 0.146553 -7.96376e-20)
(0.0507158 -0.116577 4.02769e-20)
(0.0790732 0.514852 0)
(-0.261021 0.770408 -4.93758e-22)
(0.0418024 -0.988012 0)
(1.31336 0.498564 -3.07024e-20)
(-0.0491834 -0.97777 -2.21182e-21)
(-0.150676 -0.846913 -1.69832e-20)
(0.0147722 -0.977184 7.86412e-20)
(-0.00815323 0.931016 -1.47805e-20)
(0.779583 0.349876 2.59544e-20)
(1.17164 0.660039 -6.54434e-20)
(0.0268027 -0.00148885 0)
(0.004407 -0.942963 0)
(0.0620189 -1.04638 -8.74874e-20)
(1.04469 0.550673 -4.12831e-20)
(0.0588578 0.98662 -9.59072e-21)
(0.0231821 -0.922389 6.73309e-20)
(-0.0128386 0.956366 0)
(1.00374 0.173125 0)
(0.0524132 -0.918419 -3.64064e-20)
(0.0282599 0.916668 0)
(1.18103 0.700459 1.33345e-21)
(0.0621838 1.01051 -1.61645e-20)
(-0.0134822 -0.947663 3.1858e-20)
(0.0294339 0.827889 0)
(1.41944 0.310361 7.59293e-20)
(-0.00687365 0.837974 -1.67034e-20)
(0.710545 0.403427 -1.33582e-20)
(1.037 1.0223 -1.323e-21)
(0.110018 0.992099 1.77878e-20)
(0.10647 1.00994 2.15193e-20)
(0.00133251 0.935105 4.35351e-21)
(0.104409 -0.718938 -6.85817e-20)
(0.0492722 -0.808787 0)
(0.22999 -0.0775596 -3.97091e-20)
(0.0806716 0.772909 0)
(0.00102018 -0.973585 1.29681e-19)
(-0.0378401 0.827623 -2.93643e-20)
(0.374051 -0.478904 -5.57448e-20)
(0.143936 -0.995927 -2.07096e-19)
(0.342114 -0.443395 -6.14728e-20)
(0.0643214 -0.990833 7.10686e-21)
(0.00571956 -0.970446 -7.11854e-20)
(0.0111158 -1.00665 -8.63963e-23)
(-0.00725941 -0.943143 7.81699e-20)
(0.0413942 -0.958324 1.5537e-19)
(-0.000867962 0.87338 -1.62521e-20)
(-0.0035159 0.888359 -3.5321e-21)
(0.145231 -0.865525 0)
(-0.0935293 0.944756 -2.43755e-20)
(0.0922539 -0.95006 -9.78148e-20)
(0.168649 -0.148722 5.42854e-20)
(0.311881 -0.112053 3.72122e-20)
(0.521357 -0.496041 -6.66307e-20)
(0.0464147 0.580878 -4.6358e-20)
(0.252732 0.319744 1.30764e-20)
(0.637854 -0.379113 9.6635e-20)
(0.00203625 -0.946681 9.23953e-20)
(1.17517 -0.00518234 -1.37134e-19)
(-0.0407027 0.924813 -3.45508e-21)
(0.0319881 -1.01134 1.98566e-20)
(0.811446 -0.330837 7.97776e-20)
(1.22562 0.780199 0)
(0.0103579 1.00127 0)
(0.0168622 0.911843 0)
(0.051164 0.0294995 2.98065e-20)
(1.20032 0.272373 4.94122e-20)
(-0.00577723 -0.934937 0)
(-0.0999746 -0.955947 5.88089e-20)
(0.0154404 -0.959548 -8.5573e-20)
(0.507385 -0.409216 0)
(-0.109878 -0.861368 -7.15064e-20)
(0.0318551 -0.883712 -1.54983e-19)
(-0.00496025 -0.936422 1.58247e-19)
(0.655652 -0.84496 -1.2448e-19)
(-0.0720718 0.919189 0)
(0.115054 -1.06067 6.50333e-21)
(-0.0183561 -1.00063 -8.59516e-20)
(0.0507488 0.709523 5.84667e-20)
(1.08786 0.556627 -3.20276e-20)
(0.167233 0.0860988 -2.66957e-20)
(-0.0395541 -0.837805 -1.29439e-19)
(1.09609 0.0698549 -6.82878e-20)
(-0.0565396 -0.949995 0)
(-0.00681541 -0.914937 0)
(0.606494 -0.0602354 0)
(0.0924621 -0.874478 -6.79901e-20)
(0.0135863 0.900234 1.11788e-20)
(0.00796759 0.849115 -4.13527e-20)
(-0.0378687 -0.960568 0)
(-0.0331259 0.971432 6.85645e-22)
(1.14503 0.551198 -6.26556e-20)
(0.0649454 0.919293 2.08557e-20)
(1.14943 -0.0787867 0)
(-0.00527828 -0.869191 -9.27526e-20)
(1.10956 0.448198 -1.9437e-20)
(0.0763452 0.819637 -3.43201e-20)
(0.177584 0.686918 -4.5033e-20)
(1.10575 -0.250081 0)
(-0.0590659 0.926854 0)
(-0.0751091 -0.827488 1.22512e-19)
(-0.0392034 0.915449 2.7106e-21)
(0.587738 1.17283 0)
(0.204413 0.258766 -1.53727e-20)
(-0.0808098 -0.778325 1.34919e-19)
(-0.033564 -0.955354 -1.00388e-19)
(0.105086 1.02934 0)
(-0.0742601 -0.916357 0)