/*--------------------------------*- C++ -*----------------------------------*\
  =========                 |
  \\      /  F ield         | OpenFOAM: The Open Source CFD Toolbox
   \\    /   O peration     | Website:  https://openfoam.org
    \\  /    A nd           | Version:  9
     \\/     M anipulation  |
\*---------------------------------------------------------------------------*/
FoamFile
{
    format      ascii;
    class       volScalarField;
    location    "0.2";
    object      p;
}
// * * * * * * * * * * * * * * * * * * * * * * * * * * * * * * * * * * * * * //

dimensions      [0 2 -2 0 0 0 0];

internalField   nonuniform List<scalar> 
97292
(
2.72938
0.757277
3.3796
3.00188
3.37751
0.178803
2.71635
0.284313
1.18996
2.67092
2.61237
2.54928
2.62169
2.65773
3.08816
3.32629
0.161491
1.19381
2.32721
3.40233
1.02523
0.769994
0.365856
0.126065
0.709549
0.780646
0.384659
0.158035
1.07774
0.293422
1.18592
0.978087
0.277663
2.06446
2.53548
1.22302
0.976772
0.75605
0.995346
1.20151
0.12574
0.511281
1.06052
3.61198
0.889041
2.06519
2.03959
0.711959
0.595617
0.143527
3.20117
1.62746
1.14036
3.2079
2.39867
2.45976
0.787787
0.956719
3.05814
2.39301
3.06035
2.60294
0.0929248
0.658591
3.17578
2.10796
3.08047
2.8043
0.62157
0.939477
0.757907
3.16193
1.72467
2.74903
0.901617
2.98932
2.09912
0.774067
0.780177
2.59221
0.223056
2.51308
2.80496
0.494339
2.45871
2.59896
1.06315
0.449735
2.73362
1.17369
0.899495
3.05947
1.02549
1.08523
0.293614
0.793632
3.58382
2.40706
0.991959
2.59419
1.63243
1.06147
2.5518
1.08465
0.417887
1.1137
0.84647
1.94918
2.87482
0.877158
2.64751
2.6708
0.623592
1.67384
3.43396
2.81706
0.292327
3.06733
0.61176
1.46455
0.168984
3.56275
0.618633
1.0595
3.1416
1.12371
1.04444
3.09484
1.43913
1.12784
1.28897
0.656157
0.709669
0.168781
2.50615
3.76543
0.641031
2.36893
1.15514
1.00753
3.28688
0.469894
2.71853
1.47169
2.89964
1.55692
2.50074
0.773015
2.47279
0.233897
2.71889
2.99439
3.43669
2.44888
3.0121
1.12414
2.3845
0.332354
0.264747
1.14214
2.77841
0.330231
0.685208
0.911901
1.21465
3.43383
3.58654
0.906637
3.18643
1.21003
2.5895
1.32635
2.54479
1.5419
0.774039
2.55396
1.76361
2.38754
0.366377
1.32267
3.00919
1.80331
0.899997
0.363847
3.3805
3.14611
0.887067
2.79981
3.4252
2.68125
1.65864
3.11166
0.432683
1.10859
3.50112
0.964738
0.638915
0.297783
3.56059
2.66973
2.41124
0.573301
3.40357
3.23171
3.3337
3.30694
1.50352
3.80038
2.70457
1.73577
0.822502
0.843485
0.348224
3.06935
1.06712
3.4784
0.742902
1.2662
0.435672
0.405753
0.940404
-0.126171
0.512688
2.60822
2.18639
0.497216
3.41769
2.59232
0.119351
2.15061
0.342953
2.88302
3.43637
2.45736
2.66026
0.794316
0.980677
0.921941
0.815616
1.07179
2.83862
3.08853
3.51304
0.0972827
3.30423
2.10076
2.39976
2.88135
1.16358
2.6901
3.17138
0.32462
1.10675
3.00517
2.76968
2.66808
0.184862
1.14453
1.35242
0.636684
3.16348
0.372321
0.415771
2.56819
0.947322
3.21657
3.14036
2.74241
3.30548
3.44133
0.617986
1.07302
0.637045
2.68276
3.29621
2.56611
1.85101
2.75384
0.0150102
1.7035
1.62227
0.86863
0.648099
1.14135
1.10073
0.37705
0.429934
0.487226
0.670719
0.0450756
0.0855865
2.49339
0.946464
1.07961
1.72129
3.06307
3.32199
3.04816
3.29569
1.1253
2.49938
3.15211
0.844355
2.70941
0.0996031
2.39853
0.343997
0.878779
0.66663
1.09838
0.101258
0.849772
1.07324
0.934769
1.83053
0.735819
1.50079
0.758432
1.17471
0.604522
2.24786
1.76978
0.933997
2.64104
3.69195
3.05259
2.75
1.66266
1.61269
3.21062
2.9701
2.77024
2.73548
3.44059
1.01062
0.308337
0.65093
2.79698
3.16793
0.816096
0.0675893
0.169926
1.14492
0.288314
3.18423
0.271469
0.242473
0.331356
3.20638
3.164
2.72613
3.79232
0.815476
3.21633
0.00323057
0.840981
2.75927
0.774291
3.84797
3.55405
3.48534
0.792971
0.672991
3.27748
3.12576
3.08352
2.63238
2.92667
0.769962
2.67024
2.1787
0.289349
1.57607
0.363747
0.896568
2.7019
2.16981
0.888782
3.03738
2.72118
1.0842
0.217663
2.65897
1.43474
0.731142
0.992989
2.68816
3.40215
3.15849
0.953499
0.562565
1.05894
2.70672
0.315942
0.147047
3.17193
0.692799
0.235482
2.83368
2.8431
0.273701
3.07433
2.58103
0.957385
1.05142
0.824721
0.0106866
2.55306
0.0517395
0.412842
1.058
1.05738
1.06941
1.18543
3.35871
0.704816
2.1963
3.35633
3.29354
1.07603
0.952572
0.269588
2.67881
2.75936
3.09888
3.03306
1.12418
1.16941
2.60776
2.63692
1.15241
1.21221
1.23575
3.5172
3.42557
1.11879
0.333788
1.04858
0.761213
0.726001
0.302695
2.18531
2.75253
3.25411
2.47779
1.61345
1.06947
3.10325
3.68292
2.37014
0.942785
3.3061
1.84384
1.29918
1.99986
0.356722
3.10615
2.09598
0.307651
0.119064
0.128573
2.59631
0.724775
1.05797
0.722843
3.12678
3.00939
1.63093
1.04044
1.01396
0.735613
2.63781
0.216934
3.14362
3.33583
1.03794
3.13472
3.12228
0.366752
1.92022
3.11762
3.42847
2.12538
1.59582
0.169658
3.70579
0.460343
3.12675
0.107574
0.702919
1.96766
0.724932
1.73343
3.40237
0.345952
3.03854
1.12546
0.311645
2.7122
0.22066
0.719814
2.9544
2.72974
1.1362
0.953743
1.13666
1.11211
2.97548
2.81738
1.9256
0.630786
0.777458
3.43597
0.725443
1.00856
0.474054
3.40982
0.0446849
0.762439
2.69452
0.78136
3.26299
0.481013
0.415987
0.613613
3.43458
2.48866
0.0550608
1.08048
1.01121
0.396743
0.26762
0.482412
0.373255
0.286062
3.36942
0.846327
1.06981
1.00447
2.49019
3.12025
0.276657
2.71952
1.87934
2.68404
3.19834
0.456266
2.23357
1.05423
0.774663
1.06327
2.57825
3.10912
0.791817
3.33592
2.35601
0.844785
3.35028
3.22818
0.99153
2.55691
0.720304
3.00373
2.58376
0.715201
2.43949
0.318132
0.913226
0.581619
0.804313
0.922559
1.03998
0.0795593
1.05338
0.654312
0.972597
1.09368
1.34911
1.10326
0.750525
3.37853
0.266311
0.937807
0.931645
0.921135
0.298295
0.329123
1.978
3.27676
0.822379
0.102442
3.27875
1.06226
1.51679
0.979224
2.11134
1.57262
2.27502
0.921086
2.62612
2.64378
3.57079
1.36796
2.43005
1.70329
0.390789
0.645978
0.266233
3.35408
2.79329
3.49512
1.07632
2.68201
2.67484
0.970072
2.75823
3.46777
2.69537
1.91988
0.818796
2.8372
3.05652
1.16208
0.768305
0.948989
0.721398
3.11902
2.6361
0.868525
2.44866
2.77636
1.04897
1.89071
0.218913
0.295511
1.07946
2.50092
3.43761
2.74378
1.03844
0.727578
2.89069
2.61982
3.07001
2.77271
0.743319
0.317579
2.13262
3.38087
0.982268
0.154991
1.00562
2.85025
2.53171
2.62337
0.285776
1.41307
0.294364
0.571037
0.686364
3.13921
1.10115
3.37159
0.963798
3.47254
2.67485
0.787648
2.0506
0.828562
2.24692
2.83209
3.1286
3.13946
1.56343
0.658022
0.55272
0.268225
0.464256
0.177582
2.90702
2.41005
0.0350587
2.74354
1.01942
1.13335
3.41594
3.37024
1.4512
0.98962
3.06312
0.374444
3.07274
1.21232
2.61757
2.79595
0.671371
0.587004
2.35074
0.605244
1.13587
2.13448
3.27581
3.26728
3.16493
1.09735
0.795248
2.16266
0.981457
1.01035
3.19687
2.59172
1.15066
-0.0113285
2.2022
1.12548
1.95514
0.451435
1.1051
3.09295
0.272379
2.70756
0.49049
0.321833
3.10196
0.619814
1.68779
1.03024
3.21535
3.15369
3.28921
1.06945
3.06438
1.05053
3.07434
1.05415
3.20043
2.69916
3.17645
0.650704
1.00604
2.40637
1.93344
1.38404
3.43294
0.396132
3.09168
3.38977
0.0716111
2.74528
2.77274
1.20477
0.591035
3.05714
0.880508
2.84185
3.20917
0.27612
0.966405
3.4602
2.69801
3.43162
3.23517
0.582304
3.40723
2.10659
3.44377
3.25026
0.784105
2.08931
2.47723
0.229552
3.42779
0.328146
2.8052
3.56989
1.11535
1.55537
3.38961
2.69982
1.88587
0.521672
2.56559
1.10591
0.384739
3.63387
1.53192
0.734852
0.804419
0.323519
0.273124
0.265314
2.53128
3.04963
1.35104
2.83992
2.54972
3.0634
1.16773
2.96047
2.41814
1.68313
1.1357
2.61621
0.550135
2.64514
0.726959
1.16072
1.24214
0.3672
0.533838
0.0213019
0.668332
3.04935
0.765971
2.58763
0.856859
2.48494
3.32519
0.646846
1.02173
2.67519
2.72197
0.993056
2.70574
3.36253
1.4075
1.09492
0.943692
2.89355
2.61807
1.17258
0.762018
0.845457
1.64436
1.14087
0.553339
3.02676
2.03916
1.10432
0.76197
0.854174
2.59771
1.69305
0.0706645
2.63027
1.75388
0.807439
1.15054
0.00630055
3.4375
1.26819
3.51805
3.338
3.4046
0.738635
1.21987
1.37087
0.909536
2.59842
3.0976
1.6555
0.646313
2.90363
0.329265
1.92559
3.32138
0.712121
1.24935
0.757766
3.02695
0.744145
1.27034
0.724761
1.26686
1.34641
0.825365
0.636078
0.362576
2.75632
2.73306
0.905535
0.791062
3.21619
0.843267
2.75806
3.40542
2.72855
3.41105
3.06698
3.10976
3.20965
3.402
0.645504
0.76765
3.4301
0.431404
3.1883
0.847351
0.889089
2.62986
1.15186
1.13597
2.70026
3.23167
1.84568
0.539134
2.54832
2.49554
1.52826
0.615535
0.744679
1.00615
1.67254
2.95528
2.77235
3.344
2.56861
2.91247
2.83532
3.14709
2.29759
0.22273
3.1515
3.07952
1.08235
1.35945
1.06394
2.74626
1.90609
3.26221
2.80831
1.14056
2.74188
0.610201
0.841043
3.10497
0.413816
1.48795
0.469002
1.71404
2.75174
1.56709
0.85487
1.1626
1.90096
0.40934
3.31531
0.184814
0.707962
1.12436
2.7562
3.51766
0.868149
3.05773
1.86364
0.789912
0.934038
3.66967
1.08347
3.09683
1.11854
1.62354
1.76629
2.37705
3.39703
2.43289
0.584706
1.38662
3.53238
1.15161
0.720588
2.65763
1.15567
3.47674
1.16135
1.153
0.820158
2.79977
1.77448
3.16664
1.00849
0.940784
2.20531
3.24909
2.71957
2.53406
2.22516
3.15689
3.17495
1.43645
1.0402
1.02871
2.74441
1.71923
3.25627
1.18643
0.372985
2.57672
2.5372
1.78268
2.63946
2.6562
0.0571784
2.6994
3.32414
2.52735
2.64148
2.76496
2.51749
2.83243
2.75442
0.94686
3.05962
2.77734
0.949102
0.832389
1.26392
0.182718
2.35839
0.0167254
2.56344
0.249687
1.15613
0.350059
1.1425
3.06206
0.285003
3.15997
0.635199
2.65528
0.349274
0.46035
2.9445
2.13794
1.32075
3.35473
1.00689
0.735773
2.91657
-0.484005
2.71182
2.61004
0.718704
2.31555
0.94514
1.65205
1.81685
2.94476
3.28784
3.47615
2.00766
0.440484
2.01075
2.73765
1.19462
0.148284
2.5869
0.242283
1.97404
2.64672
1.68642
2.36075
2.60046
2.6538
3.37623
3.34453
0.34479
3.43217
0.81474
2.35667
3.47109
3.44691
2.28462
1.96233
3.51299
0.545123
1.11211
0.202976
2.34616
1.84231
1.07426
0.645329
0.167574
2.63198
0.750649
1.5379
0.188553
2.44575
3.24182
3.34138
0.203185
0.499568
3.25635
1.16515
3.36858
2.81005
2.95033
1.02145
-2.13727
2.64624
1.26723
1.9369
2.75454
0.0598163
0.784632
2.71316
1.01782
0.86073
3.50644
1.96626
3.05346
2.66295
3.50258
1.31668
0.841336
1.11093
1.69844
1.03727
2.71564
0.726966
1.06084
-0.000747616
2.29517
3.06478
3.24311
1.1775
1.66092
2.7159
2.73848
3.36087
2.75719
0.365111
0.359004
2.41476
0.780568
3.09322
0.504987
3.20331
2.33829
0.0761762
2.27013
3.36834
3.05486
2.24935
0.484343
0.739217
2.74236
0.3405
3.41887
0.610639
1.42643
3.22005
1.88295
0.87644
2.81172
3.20757
0.835391
3.37978
1.45639
1.00026
3.54476
0.485504
2.98548
3.25435
0.246863
2.48825
2.70123
1.11496
1.09797
1.00357
-0.0120975
1.48874
0.990498
1.13635
2.29896
1.56441
1.28119
0.948345
3.09643
3.21738
0.172359
3.11579
0.685727
0.606283
3.03346
0.398964
0.74596
1.03141
1.11655
1.70045
3.03607
3.1035
0.933716
2.77432
2.80529
0.770226
3.49559
0.860261
1.18651
1.50385
2.90174
0.284053
3.47399
0.60667
2.31865
3.10817
0.724459
0.624369
0.722855
0.0475141
3.12257
2.69149
1.03686
1.05472
3.18453
0.312328
0.125082
3.10583
0.746387
2.94184
3.39526
1.85682
3.32184
3.34662
0.773118
3.32653
1.72701
3.36298
0.265523
3.19128
3.30178
1.57909
1.14131
3.25652
1.04946
0.953501
2.64742
3.02889
2.57075
3.03112
3.0847
1.52947
0.452361
2.69651
1.09678
3.20989
0.590504
1.79348
2.75074
3.25803
0.631648
0.822802
0.784662
1.66733
2.80951
0.660663
3.21413
3.23648
2.25754
1.68016
2.19093
2.90382
0.255082
0.460538
3.31961
2.5705
3.30453
1.03979
2.56621
3.50694
3.06667
1.18409
2.99977
0.781748
0.491548
0.712071
3.12665
0.321448
3.39554
0.390097
0.35068
2.68633
2.87857
3.51654
2.90903
1.01936
1.20615
0.883146
3.40834
3.54447
3.19812
2.63001
0.889847
0.885224
3.5395
1.84059
0.951833
3.46579
2.64656
3.42373
3.04682
2.9504
1.70813
2.8346
3.03046
0.603673
3.27292
3.26747
2.45245
0.735865
2.44392
1.19791
1.15835
2.11496
2.67544
0.605199
1.17554
2.66808
2.82691
0.506776
0.544615
3.47019
2.64115
1.52927
2.86268
3.40903
0.63636
0.896271
2.73141
0.99801
0.69485
1.6543
0.494274
0.482487
1.50161
1.51544
1.49014
0.744741
0.589281
0.766987
1.17413
0.76829
0.764428
0.842985
0.780545
0.119265
2.71475
3.16565
1.0996
1.05609
1.7961
2.67952
0.563649
0.615183
0.708328
2.84586
2.86096
2.85546
3.45289
0.899189
1.60134
0.435278
2.30854
0.971561
3.14293
1.38442
3.05317
1.18412
0.906601
1.01687
3.23575
1.03465
2.94652
2.7046
3.29874
3.11679
2.27415
2.26947
2.63412
0.666036
2.67326
1.669
1.08003
2.46423
0.863692
0.992911
0.151459
0.737561
2.69469
2.46709
1.91017
0.246366
2.32985
3.3658
0.910838
1.07659
1.92349
0.623848
2.71535
3.01368
3.21005
1.99244
0.738045
3.38166
0.804222
0.854568
3.61317
2.46726
1.38467
3.43251
0.3154
0.6047
2.27281
1.09235
0.421299
0.317616
1.1223
1.6546
0.88618
0.75003
0.730627
0.826423
0.668753
0.625605
0.339677
0.154719
0.591853
1.0977
0.499775
1.36888
0.235924
1.09504
0.450823
2.71868
3.10885
0.201108
0.304063
1.89411
3.065
3.16273
2.79728
2.77335
0.337536
2.13088
2.73558
2.73107
2.60651
0.940999
1.06894
1.54953
1.09445
0.959412
2.74233
1.09279
0.542768
2.68072
0.31417
2.47942
2.36974
2.83025
0.603628
0.637877
1.73381
1.12497
0.62066
0.81226
0.00521286
3.08225
0.962917
1.61391
2.66786
1.08557
2.68937
2.06808
2.67888
1.11619
3.00641
0.974994
1.47659
2.54837
2.7069
2.60227
2.60348
3.28796
3.24347
3.42027
2.89809
0.729638
2.95721
3.47146
3.16924
1.1227
3.18347
2.40791
1.01587
2.71395
1.09764
3.40553
1.93689
0.90151
2.37643
0.4143
3.06746
2.54006
2.63014
3.29687
2.10523
1.13791
2.11881
2.23814
0.261548
2.7598
2.49254
2.79189
3.45866
0.646725
3.53972
2.77965
0.388413
2.26801
0.114548
0.626444
3.45065
0.795279
0.875452
0.72455
0.681664
0.815866
1.71642
2.46218
0.0317304
2.21284
2.46269
2.67677
0.377193
0.740609
3.5758
1.27291
3.52419
3.49906
1.2458
1.53422
3.4728
2.4766
0.721575
3.10688
3.17666
0.855564
3.04444
1.03112
0.179638
0.626192
1.24469
0.599957
0.688799
0.669468
0.580293
1.06782
3.56497
0.105981
3.18382
0.684728
0.859122
0.152815
0.731286
0.00438096
2.98834
3.19778
1.56877
0.670787
0.807941
2.45348
3.01253
2.73141
2.83682
0.331891
3.33285
3.31937
2.56545
0.899463
1.17129
2.72439
2.41056
2.43239
3.0949
1.83323
0.707517
1.01784
1.79851
0.870763
0.417771
0.210078
1.071
2.75944
0.744782
2.63384
0.41695
2.0275
0.377219
2.7298
0.812735
0.96433
0.756798
1.70665
1.6398
3.19505
1.8631
0.351142
3.14344
2.5971
0.298981
1.15969
3.29869
2.66679
0.649092
2.31547
1.15472
1.51507
3.03509
2.63543
1.74993
3.00662
1.11999
0.630759
0.134668
3.44134
0.982024
0.749791
1.13401
1.62994
2.77686
0.39264
3.10033
0.846042
0.827927
3.27297
0.397672
0.622021
2.82526
0.395785
2.93911
2.42954
3.26904
1.37395
2.82853
2.49009
2.6839
2.4149
1.73732
0.735782
1.77136
2.4143
3.23937
2.35336
1.72755
3.34834
2.75375
0.257792
1.119
2.86572
0.0320994
2.07083
0.973491
2.98196
2.4053
2.76082
2.60087
0.664303
2.54052
2.16529
2.72619
3.24902
3.07464
0.50216
2.72324
2.68187
0.411219
0.243474
2.65628
2.60039
1.08865
3.32635
3.01907
2.50651
0.454275
1.14154
3.0763
2.70438
0.542915
2.90713
2.32931
0.388155
0.625852
2.86006
1.12768
2.69892
0.762519
1.15306
2.04693
3.17195
1.60918
0.864829
0.872617
3.45553
0.309386
0.724549
3.11797
0.902357
1.1216
2.79564
1.33286
2.75664
2.81086
1.09301
0.459929
0.11474
0.687083
1.673
1.26631
3.25574
0.367377
0.409609
0.319812
1.04166
1.02037
1.12747
0.0391357
1.08667
1.18909
0.742226
1.07854
0.701527
0.668762
0.644298
1.01403
2.69043
0.822619
2.65255
3.5218
1.00705
1.54216
1.0423
2.1356
2.51573
3.56592
0.659249
0.982136
2.52202
0.585862
3.18786
3.11743
2.09208
3.16722
2.45173
2.70447
1.32974
2.62198
1.4046
0.578388
3.09056
0.767924
1.06207
2.73696
2.73589
1.37258
3.43115
2.476
3.24572
1.00162
2.6987
0.000419537
1.10654
3.35622
3.45535
0.856417
1.00913
1.94591
2.76829
0.861726
2.44317
1.15008
1.93197
1.01325
2.09699
1.58571
0.549205
0.710382
2.68751
1.11152
2.13355
2.85757
1.54306
0.378781
0.969433
1.35469
0.225746
2.79732
0.62723
0.432083
2.50802
2.56067
1.12853
2.99983
0.647852
1.38073
2.55336
1.22642
1.73067
0.951899
2.59858
1.16937
0.53476
1.96104
0.390702
1.02212
0.835732
0.538514
2.63112
0.467797
0.656476
1.00047
3.20375
1.40213
0.825297
1.34394
1.70801
0.50132
0.900069
0.775605
3.24926
2.72676
1.2871
0.66055
1.15345
0.416562
3.37164
3.56361
0.78395
1.15336
0.159669
0.632964
2.70027
3.08777
2.74687
0.753746
2.63227
3.18667
0.649679
3.00279
1.00647
1.34187
3.28542
1.1814
0.740458
0.686488
2.69465
0.548275
1.49869
0.818153
1.36559
2.64418
2.29049
2.74835
3.42955
2.53055
2.19297
0.705149
3.02622
0.0744229
1.15498
1.71793
3.47129
2.56097
3.55536
3.0974
2.46595
2.18938
1.73602
1.14919
0.60927
0.774662
0.988543
2.85949
2.62894
0.41545
3.47301
1.02454
0.601378
0.999346
2.10345
1.80026
3.66793
3.29486
0.108265
0.708693
3.10073
0.341013
1.75328
0.382988
0.471189
2.57126
0.573833
2.96166
0.469793
1.98762
0.445523
2.59746
0.807962
0.57233
2.28982
0.905642
1.1267
3.32624
2.66729
2.83911
2.67854
1.18061
3.35833
3.52771
0.359062
1.63644
0.337296
2.37908
1.53999
2.55192
1.50739
0.252102
0.522434
0.398811
0.807374
3.11131
1.48595
3.28796
1.0093
1.00459
0.72513
2.40746
2.6433
2.61922
0.626599
0.502854
0.983846
0.842633
0.658381
1.11808
3.28695
3.12936
3.01522
0.412432
1.78803
1.01682
1.60436
0.77684
0.663771
2.78101
3.11469
1.59639
1.13923
0.952544
1.18648
3.11158
0.291167
0.356839
1.75876
3.192
1.12315
1.33607
3.52995
0.778261
1.13392
2.93108
0.757784
1.4501
0.712387
2.54798
1.59836
0.575082
0.910049
2.62454
3.43688
1.08916
3.15639
2.80167
0.419732
0.736159
1.06243
0.313756
0.300139
2.78608
3.49506
1.63789
0.0699304
0.731302
3.31319
3.13749
0.227341
3.20689
0.988413
1.82986
3.36718
3.22935
0.195782
1.87559
2.50034
0.94973
0.482084
2.50164
2.89397
0.647576
1.09169
0.259156
3.04729
0.310801
1.01136
0.936276
0.581177
0.0339065
1.09783
3.39426
2.58925
0.782182
3.60019
2.17362
2.75652
0.66565
1.68857
2.62958
0.816391
2.59081
2.84997
0.764312
1.52061
2.66391
1.14003
3.329
1.70736
-0.0478896
1.10526
2.42525
3.43943
0.890756
3.10871
1.56148
1.57457
2.63951
3.17442
3.44306
1.36038
1.4437
1.17098
2.6021
0.821835
0.55299
0.693584
2.75171
0.829664
0.580958
3.09134
0.926889
3.3101
3.56643
1.9966
0.896328
2.8225
2.44184
2.73914
1.41774
0.956816
0.618878
0.90241
2.69694
2.61731
2.81079
3.33438
3.06204
1.46709
2.85093
0.330933
3.24273
0.817966
2.64635
3.28405
2.7061
3.34266
3.2369
3.20229
3.81711
0.531024
1.67057
1.2844
0.288359
3.43675
3.03343
2.39736
0.339512
1.49986
1.1084
2.85511
2.73963
0.876705
2.14231
2.90992
2.98748
3.35414
0.58909
3.00723
2.63624
0.673099
2.74264
3.37989
3.41143
2.80529
2.72133
2.80217
2.72109
2.90757
2.42479
0.0806767
0.335581
3.38013
1.14155
0.0324424
3.19774
0.71482
-0.0311241
0.608281
2.58667
2.75136
0.966701
0.757995
0.18751
2.50524
2.38809
0.762619
3.46791
0.727604
2.72556
2.63272
1.59443
0.319459
2.38427
3.38767
3.49007
2.60312
1.19603
1.0096
1.29545
0.43829
0.816675
3.53904
0.839723
2.90473
2.21562
2.91816
0.826148
2.75452
3.51156
3.11143
0.72072
2.4836
2.70586
3.36772
0.778102
0.252805
1.17622
2.71505
0.487437
3.04762
1.68292
1.09465
1.64163
0.381605
2.65245
1.5832
0.767857
2.62917
0.703223
2.74151
2.21285
2.27509
3.08842
2.62791
0.134011
3.39647
2.76796
0.787588
3.15857
3.07495
2.6997
3.45246
2.50166
0.679516
2.58637
0.919322
1.63495
0.713985
0.669631
1.13299
0.269257
3.03899
0.302562
0.31046
0.210557
1.61728
0.717093
2.31773
2.71007
3.32517
1.07837
3.38269
1.57222
1.00668
0.680036
3.35718
0.602536
2.59388
2.6685
1.1165
0.483408
1.15229
0.681172
3.48151
2.70295
0.789836
0.625478
0.214322
0.242361
2.66909
1.12388
0.787546
0.865181
2.96246
1.65674
1.15041
0.8414
3.03942
3.14996
1.03788
2.62667
0.720901
0.361583
0.385817
0.786965
1.15496
2.55131
0.917437
1.07748
0.24406
1.05624
1.49073
2.44983
2.83137
1.3911
2.82812
3.08341
2.8054
2.36562
0.304083
0.67327
2.50731
2.60702
2.18527
0.701525
3.04873
1.25514
2.78828
-0.026894
2.65239
2.65298
0.427553
1.03101
0.741957
2.64787
0.038234
3.02978
3.3177
3.45337
1.00738
2.87633
1.67443
1.3659
0.559242
0.894948
0.621061
0.576046
3.02376
2.28071
0.561362
0.391224
0.4735
0.561157
3.16136
3.04172
3.17931
1.11997
2.76856
0.846828
2.8905
0.868138
0.844588
0.838628
3.13344
1.46036
1.10587
0.900556
0.71855
3.22647
2.9981
2.18322
0.964664
3.31147
3.46741
2.42146
2.77023
0.284082
1.33585
3.43735
1.58795
2.73615
2.73658
2.58976
2.14775
0.756807
0.602221
1.01808
0.607771
0.044674
0.423785
0.913491
3.41657
2.61694
0.805123
0.995944
2.61391
0.66701
1.13441
0.720327
2.45818
1.00591
1.52281
1.67211
0.826673
2.77052
2.64495
3.28485
0.788492
2.41497
2.78922
0.152382
1.16686
0.511641
2.38484
2.71247
0.503885
2.76494
0.978907
2.46834
2.49261
0.752285
2.03629
0.647283
0.558383
1.01122
3.41969
0.636693
0.212605
3.21155
0.688963
0.631135
3.31353
3.04543
0.643771
3.39841
3.15573
2.87747
1.14103
2.7973
3.31622
2.20197
0.651337
2.85562
0.625922
0.389537
0.86324
0.796819
0.472644
0.597413
1.01127
2.61022
0.738643
1.62857
0.978768
2.74384
2.70864
0.326157
0.686787
0.525698
3.2996
3.1084
2.77732
2.4877
1.58697
2.42998
2.84137
0.740245
3.13807
2.65002
1.06449
2.63636
2.71311
2.74068
2.65622
2.63627
2.66666
2.7407
3.2094
2.71952
1.69451
2.85539
1.89015
1.77077
3.25779
1.24543
3.27156
3.39302
1.32847
3.43714
2.57967
0.46634
0.749619
0.392769
2.09701
2.76645
1.06163
2.52963
0.71053
0.685006
2.26223
2.66572
2.75008
2.7563
0.887013
2.64428
2.70265
0.754981
0.12636
0.16135
1.26513
2.62483
0.87017
0.180775
2.66476
0.636197
1.13779
0.578802
0.820165
2.6433
1.07353
2.65658
2.88332
2.70383
0.933345
1.98008
2.67321
3.03475
0.716598
3.34247
0.607663
0.747397
0.774545
2.90982
1.05485
2.67045
2.14532
2.48994
0.270727
1.12187
3.16021
0.127556
2.42094
0.493012
0.252008
2.74997
1.22597
3.18218
3.07784
1.94638
0.833328
0.897792
0.604519
1.74004
1.74849
0.860314
3.4075
3.12699
1.00331
2.70167
1.04371
3.16598
3.47402
0.882451
2.0124
2.08845
0.287956
1.87878
2.70171
0.71729
1.66397
2.97146
1.18413
2.70617
2.71178
1.17507
0.993522
0.424079
2.71768
1.2528
1.67497
2.70413
0.731136
2.40234
3.52492
2.68286
0.456455
0.978979
0.465678
0.200612
3.17018
0.442875
2.74347
1.19839
0.181226
0.242008
0.255918
3.08441
0.8307
1.84557
3.32255
2.33469
0.222671
3.32833
0.991405
3.35543
1.18645
2.67087
0.710186
2.17073
1.10588
3.43822
0.75715
1.13762
2.00639
2.50013
0.315901
0.482154
0.29422
2.74266
3.05833
0.806695
2.69805
0.0289405
1.15129
2.05987
0.461175
3.41896
1.16704
2.73995
2.63251
2.7625
0.749801
1.15321
2.07246
2.65252
0.78068
0.146185
2.09559
3.59505
2.06118
2.45528
2.72802
0.85685
0.332916
1.11427
0.595129
1.47644
3.1255
2.61106
2.82281
2.63798
2.82064
2.33326
0.731034
1.55932
2.46092
2.57994
3.22922
0.92647
3.02384
0.854469
2.40277
1.79591
1.26395
1.0715
2.02775
3.34806
2.3829
2.65877
0.94441
1.07903
1.52981
0.263374
1.04938
2.40332
2.18367
1.08629
1.95153
0.40579
1.57883
2.6212
1.58433
2.56371
2.60159
2.59334
0.709543
1.47264
2.59216
1.52511
3.12341
3.40693
0.618752
1.07404
2.71419
2.42304
0.593619
0.59749
0.430236
0.670564
1.14879
0.467555
2.56494
0.62127
0.60622
2.63348
1.46243
1.10509
0.68875
0.64404
2.82143
3.14016
1.5491
1.13742
1.19716
0.779111
0.222991
2.8832
1.83804
0.808338
0.805068
1.75882
0.992958
2.47697
3.06596
0.989768
0.703233
3.05512
1.14144
0.744678
0.747792
0.71952
0.995842
1.30947
3.38249
0.244077
2.4299
0.937496
2.19095
1.23037
0.834916
1.00643
3.45496
0.946526
0.918881
0.960881
0.00317422
2.6504
0.704715
2.65932
0.700219
1.20128
0.685322
0.96216
0.978765
3.24371
0.424003
1.17007
0.419341
0.151448
1.88176
0.694688
2.71915
0.266723
0.774852
0.75841
0.715511
0.00918095
3.13836
0.125581
0.899479
0.86596
3.44664
2.54745
3.38224
2.86911
2.85217
2.13242
0.213932
2.14912
2.69916
2.75554
3.3305
2.65423
0.741824
1.01765
2.03798
2.21791
2.56372
3.02843
0.516868
3.44838
0.805226
0.989304
1.01952
2.53477
1.46172
0.70949
1.1055
2.75645
2.33616
3.37046
0.0760738
3.15664
3.07266
0.996965
3.57209
0.745484
0.448103
3.07919
3.26374
0.977029
0.552343
2.69441
0.304349
0.286457
0.810761
1.1218
0.844729
0.432852
1.11868
2.87081
2.60769
-0.0718525
2.90604
0.639564
1.86418
2.2876
0.579507
0.609356
2.41519
2.61176
0.856752
0.361246
2.98798
2.83325
3.45312
0.553894
0.296487
0.693635
0.231737
1.15385
0.448496
2.76381
0.781519
3.31628
2.67674
2.12348
3.01479
0.196857
1.18258
2.15938
0.276481
0.00980468
1.13584
1.02199
1.00641
1.49674
2.8139
2.71462
2.31343
1.11775
0.645355
2.73407
0.876221
0.738166
2.24807
0.680102
2.77984
2.20471
0.873616
0.452386
0.428878
1.38947
1.97128
0.490962
2.7259
3.07902
2.6707
2.57525
2.60798
2.68498
1.15393
1.40553
2.96929
0.99708
0.167262
1.89115
2.67773
0.96812
3.01641
2.74722
2.61089
3.12484
2.86313
0.393564
1.06176
0.64082
0.315277
0.47802
3.39206
2.71498
0.938631
2.72377
3.3192
0.573253
1.14192
3.46926
0.511093
1.01711
2.38851
1.48513
0.761432
2.72638
0.330833
2.45263
2.4965
2.64281
2.08785
2.71701
0.997801
3.56139
2.79894
2.73619
2.04073
0.39722
1.02997
0.349171
3.42837
3.40073
1.0183
0.411491
3.7661
3.43194
2.77475
3.55775
0.797277
2.5027
1.12406
1.82953
2.6888
3.10896
2.58397
1.33613
0.995605
0.877546
3.28422
1.03185
0.0715879
3.26358
1.22326
0.345127
1.03502
0.910735
0.678074
2.66584
0.330319
2.70948
0.223039
1.63329
3.18833
1.87781
0.685978
2.71008
3.09571
0.292635
2.70741
1.2625
2.26091
0.943481
1.03638
0.404367
2.9505
1.09877
0.256399
3.34004
1.0979
0.249928
0.761389
3.19306
2.39111
1.0919
0.13943
3.43321
3.29201
3.34141
1.01735
3.28223
1.29716
3.17861
0.833445
0.903891
1.02547
2.77569
0.0544491
1.03476
0.357385
2.09869
2.68269
1.12641
3.33705
2.66188
0.570725
3.08273
0.239256
3.15596
1.03845
3.35502
2.71226
1.08399
0.815622
0.423462
0.832199
1.05361
2.79063
0.720298
2.69396
2.8504
1.12767
3.45722
3.42277
2.66406
1.42796
2.6017
0.0234224
2.58802
0.262694
3.32594
0.502396
0.475352
2.76661
0.417644
1.18412
2.75184
2.71941
2.88468
2.42764
3.05055
1.05295
1.30074
3.05262
2.39599
2.4133
3.06322
3.17141
2.86739
1.81613
0.0925858
0.262477
1.66804
3.5395
2.34251
0.179534
2.44295
2.94558
1.00104
1.82323
0.783782
0.15501
0.873371
3.0012
0.419636
0.68912
1.56072
0.67208
0.711442
2.62835
2.40752
1.57229
0.435551
2.98149
0.729536
2.72801
3.12293
0.572322
0.258441
3.2588
0.553616
0.447399
2.54237
1.48828
2.65674
2.44045
2.55405
0.276103
3.12078
0.773894
2.66693
1.57644
2.46512
2.46034
1.08926
3.08761
0.0189697
3.0399
1.39027
0.615268
2.73069
2.70071
3.18751
2.3647
3.33721
2.13002
2.93212
0.91812
3.14682
0.748057
0.627484
2.81122
1.99551
2.48126
2.41534
0.7881
2.52329
0.214809
3.29437
1.04626
0.742634
1.13019
0.746065
0.806304
0.674577
0.628058
3.25268
0.710838
1.29755
2.55184
1.05986
3.05524
0.507615
2.18363
3.43819
1.0551
3.14921
3.19973
1.0552
3.0248
1.30908
0.0416095
2.17003
1.51332
2.45022
0.473163
3.57233
0.957723
2.08997
0.304365
0.263572
0.920208
1.14128
2.15239
1.1375
2.13828
0.937045
0.91759
2.87503
3.22075
3.06542
3.17306
0.257677
1.49535
0.695584
0.698451
2.78274
2.48022
0.835874
0.577561
3.43803
1.76987
2.79335
0.407133
3.34699
2.82248
3.15668
0.831512
3.25189
3.05074
1.07549
1.93927
1.80478
1.89345
2.16725
2.51107
0.90314
0.672922
0.977929
0.156298
2.88366
2.46876
0.849004
2.78974
2.71007
2.31548
2.02938
2.91698
1.05895
0.273908
0.62603
2.81636
3.09602
2.48665
0.815071
3.0245
1.21169
3.06191
2.77114
0.664853
3.37048
0.26503
2.72327
0.60253
3.4213
0.189937
1.15212
3.12446
3.33818
2.24225
2.76344
3.06
1.08651
3.31167
3.29102
3.03723
1.12247
2.649
0.699198
0.670997
0.15308
1.12248
0.550381
3.14425
0.477705
2.42175
3.15054
1.97974
0.839782
2.60592
2.04121
2.69231
3.2834
1.50982
2.88312
2.75957
1.10815
3.04206
2.71426
0.970585
3.17819
0.566177
1.09563
2.67236
2.80736
2.67358
1.03804
1.08294
1.12228
-0.0444378
2.69619
3.25919
0.70149
1.89382
2.75254
3.34781
2.71849
-0.0235295
0.716066
1.01721
2.58194
0.314549
1.06978
1.1088
2.52016
2.7138
2.49636
2.52324
0.729373
1.10185
1.1304
2.56209
1.10414
2.61089
2.02435
0.362496
3.45006
0.173681
3.00094
1.12699
1.75801
2.44764
1.15478
1.22838
3.06362
1.00147
2.06701
2.8462
0.705601
0.685729
0.92756
0.648524
0.369066
2.51587
0.212338
0.886447
0.23014
2.6836
1.13667
2.56907
2.84673
0.393202
1.79394
2.79906
1.12609
0.246489
0.366074
3.2688
0.7115
3.24128
0.760041
0.487439
1.88602
0.427641
0.161731
3.04585
2.75461
0.917728
2.63322
3.24678
1.14744
3.43591
3.2834
3.2134
2.34903
2.99002
3.2835
2.35562
0.631679
2.29871
1.38579
0.616313
2.8173
0.672095
0.226085
2.85987
3.20272
1.14914
3.2473
0.363653
0.803052
2.60014
0.186205
0.343138
3.05902
0.916896
3.19744
2.67155
1.15002
2.74588
3.42942
1.87883
3.44818
1.08251
0.718034
0.647364
3.37761
1.66935
1.36878
0.71941
2.84582
0.223252
0.518867
2.61044
0.53234
1.16134
2.73827
0.290304
2.59233
3.43654
2.55726
3.17838
0.690022
1.22028
3.18113
2.58259
2.06675
0.403481
1.07572
3.29061
0.80769
2.90347
0.979049
2.24825
1.28032
2.83575
0.648185
0.76045
2.69937
2.25584
1.40984
1.35104
3.29577
0.0295758
2.47056
1.4119
0.754113
3.37218
1.15936
3.24251
1.99248
0.605133
0.598681
0.0985488
0.691255
1.00133
2.63079
0.598222
2.65372
0.615979
2.67312
0.0120761
0.112049
1.14287
3.14193
0.419716
2.65497
1.01741
2.78849
0.985316
1.65542
0.221314
2.67905
1.40966
2.63185
3.39321
0.780499
2.7961
2.7723
1.15067
2.97375
3.02039
3.01177
3.29727
2.73867
1.1053
2.48793
0.449673
0.166681
0.17466
1.12616
1.14906
0.260016
3.54062
0.890818
0.602937
0.257057
2.76806
2.65978
2.47539
3.2399
3.83703
1.5885
3.21832
0.279886
0.664395
1.01951
3.48684
2.74523
3.50259
0.964971
0.968187
2.80215
2.39045
1.21734
2.84553
0.848188
1.80937
2.70858
0.824214
0.531251
2.68378
2.68241
2.39765
0.751072
0.802993
0.652645
2.76071
0.0540114
1.75256
0.550435
2.8378
0.534104
2.64065
3.31466
2.67034
2.60882
0.877495
2.53337
1.01787
0.17086
3.20939
0.318048
0.505596
0.822216
2.69532
3.52468
2.13331
1.64354
1.22909
0.487034
1.69058
1.12547
2.73145
1.84349
2.18699
3.26256
3.38207
0.950573
0.465528
3.39021
1.14523
3.04984
3.39422
2.05013
0.226083
0.343025
0.293202
0.552729
0.177131
0.374604
0.397266
2.75719
2.47949
0.443186
2.39482
0.120203
3.17835
2.32937
2.71847
2.36322
0.344315
3.36485
0.469563
2.09488
2.31652
2.6495
0.168538
1.77066
2.81269
3.38886
0.68967
2.95277
0.684383
0.119966
3.42011
2.98277
3.47681
1.64543
2.26151
2.57651
1.07838
0.455841
0.642984
3.37945
0.493434
2.74422
1.01702
0.749355
2.69595
2.98601
2.70869
2.88848
3.06023
0.926636
0.734263
0.618907
2.37568
2.57294
2.42258
2.75069
2.81385
2.83338
0.273763
2.49135
3.10239
2.89252
2.87487
3.01143
1.39944
3.02147
0.317042
3.30698
0.319692
0.896091
1.68443
1.52835
0.766541
0.842448
0.804946
1.28053
1.16882
3.43976
3.3589
2.7582
3.30132
0.557297
2.67559
1.21709
0.385481
1.19512
2.95181
3.58443
3.27839
2.66874
0.384471
0.684806
2.08889
3.3084
0.747556