/*--------------------------------*- C++ -*----------------------------------*\
  =========                 |
  \\      /  F ield         | OpenFOAM: The Open Source CFD Toolbox
   \\    /   O peration     | Website:  https://openfoam.org
    \\  /    A nd           | Version:  9
     \\/     M anipulation  |
\*---------------------------------------------------------------------------*/
FoamFile
{
    format      ascii;
    class       surfaceScalarField;
    location    "0.2";
    object      phi;
}
// * * * * * * * * * * * * * * * * * * * * * * * * * * * * * * * * * * * * * //

dimensions      [0 3 -1 0 0 0 0];

internalField   nonuniform List<scalar> 
143364
(
-9.88037
1.55312
8.32725
-4.25284
8.72643
-4.4736
9.84439
0.722703
-10.5671
-13.2363
9.09154
4.14476
-0.272584
10.117
2.91023
-8.87883
5.9686
8.04907
0.735997
-8.78507
-0.838701
-6.75579
7.59449
6.20336
-10.8254
4.62205
10.1559
-2.10682
8.622
-8.33107
-0.290929
1.88468
6.73732
-0.295406
8.41137
-8.11597
-10.3433
5.8894
4.45392
-9.92196
5.74303
4.17894
10.3813
-2.84031
-7.54097
2.0293
8.28135
-10.3106
6.74027
-10.247
3.50678
-0.460528
-9.14724
9.60777
0.286862
10.0944
0.166649
6.20272
-6.36937
-0.643704
8.52504
-7.88133
5.77896
-9.24929
3.47033
9.70915
-6.79892
-8.43368
7.78998
-2.36015
9.04397
-6.68382
-11.1473
7.11828
4.029
-9.54226
0.663423
-5.92323
6.08988
-5.4648
11.2438
-2.71147
8.91482
7.99228
-8.94405
0.951769
-6.73228
-4.41499
-10.7253
11.5716
-0.846382
-8.86017
10.7606
-1.9004
-8.27387
-9.44217
17.716
10.7771
-9.78301
-0.994098
-17.3987
14.3448
3.05382
9.70979
-1.7175
7.48958
-15.7635
7.96185
-11.4352
3.47338
-0.106395
-7.52843
7.63483
-6.45011
9.53333
-3.08322
4.49234
-10.6433
6.151
5.13568
5.57191
-10.7076
-13.5096
5.03123
8.47837
-10.8228
-2.6868
-4.81893
8.74108
-3.92214
11.8541
-6.70283
-5.15132
3.76207
4.68988
-8.45195
9.03216
0.212816
-9.24497
6.97501
-10.7369
3.76185
-1.60392
-2.33304
3.93696
11.267
-2.23481
-12.5381
8.55354
3.98458
-2.76
8.5774
-5.8174
-12.7424
-4.65627
9.98007
-1.80657
-8.1735
-3.21937
9.89602
-6.67665
-1.28226
-6.07443
7.3567
-11.3063
8.6394
2.66694
4.72657
-7.48658
9.73067
4.10768
7.74647
1.95521
8.04338
-9.99859
-13.2109
-1.46897
14.6799
-11.7155
7.8526
3.86285
11.3869
-8.14014
-3.24676
12.6409
-7.68581
-4.95505
0.362534
-0.805599
0.443065
2.01094
7.39268
-9.40363
-12.075
8.11707
3.95791
-3.42858
12.4968
-9.06821
-3.53277
-6.81056
-0.395384
0.235927
0.159457
6.25433
-11.7574
5.50305
11.4346
-11.4346
-9.25851
5.00568
-7.07296
-2.18555
-4.21796
-4.19694
8.4149
12.256
-7.94385
-4.31212
-4.3807
-5.49725
9.87794
-6.03975
-5.24361
11.2834
2.98588
-8.95894
5.97306
-0.915669
-7.9445
-11.6656
7.28493
0.236574
-1.85282
1.61625
-7.74303
0.616641
7.12639
4.87402
-1.09079
-3.78322
-13.0921
11.6264
1.46565
-0.19522
-0.200164
1.73952
7.75388
-9.4934
-1.82868
-0.708343
2.53702
-2.76668
0.0613774
2.70531
-7.83612
6.99741
-1.71663
8.41227
-6.69564
-9.81779
11.491
-1.67319
-15.3555
10.1463
5.20923
9.34154
0.638523
9.18702
-6.26211
-2.92491
-5.37507
12.3501
-9.23059
2.78048
-2.22209
-6.06097
8.28306
1.67619
-1.43961
-5.05056
8.2178
-3.16724
3.55707
4.12511
-7.68218
-3.40844
-3.20939
6.61783
-1.3462
-6.99807
8.34426
1.36467
-9.49238
8.12771
-3.39548
13.4132
-10.0177
6.15767
-1.28366
8.33885
-8.78074
0.441885
6.57669
1.23799
-7.81468
9.08886
0.692775
-9.78164
-9.14659
11.4555
-2.30892
2.8161
-8.85585
-6.00973
10.5178
-4.50803
6.07354
2.86234
-8.93588
-4.82526
8.84044
-4.01518
3.73415
-9.91405
6.17991
6.7571
5.49887
4.70719
-10.0587
5.35149
6.05471
6.58616
-0.601005
-0.959391
1.5604
9.02503
-10.1
1.07495
6.62391
-0.514299
-6.10961
-1.54809
0.947086
9.15318
0.755708
-9.90889
-15.9012
14.4432
1.45793
-1.83786
8.46177
-14.9586
-2.34817
17.3067
-1.26685
-9.54323
10.8101
-10.543
0.643563
9.89941
11.3474
-7.3621
-3.98532
9.68757
-6.93859
-2.74898
-0.303792
-7.60955
7.91335
5.54461
2.5677
-8.11231
-8.48145
7.19918
4.43361
-4.71843
0.284826
-2.7184
0.889726
-11.5949
7.7707
3.82421
12.1755
-6.43775
-5.73779
-12.5196
8.07235
4.44726
-14.5225
14.8542
-0.331716
0.284971
-9.24125
8.95628
-10.1392
-4.38331
-10.0126
10.0572
-0.0446541
-10.3761
0.576432
9.7997
-6.56497
8.87006
-2.30509
-8.18241
-0.645151
8.82756
-3.03136
-4.42406
7.45543
-4.12389
-7.59156
-5.56427
10.0679
-4.50365
-5.52541
-4.48715
-6.7417
-3.18026
3.34231
7.78323
-11.1255
-10.7188
-4.63671
-10.1228
9.89691
0.225918
-0.666897
-9.45593
8.41741
-4.86034
-7.43853
-2.08143
9.51995
-7.7589
7.7589
7.98848
-2.44387
-0.508323
0.303501
0.204822
-6.6455
9.98781
-6.57514
10.5847
-4.0096
-4.80557
9.73434
-4.92877
-0.272396
8.41482
-11.2235
2.80863
-8.50177
3.1481
5.35367
7.63317
1.12672
-8.75989
10.1135
4.0215
-14.135
-10.6696
4.33662
6.33298
-8.69965
12.4338
-2.8638
-5.13097
7.99477
-1.44621
9.07938
16.5814
-10.9691
-5.6123
-6.24031
10.4665
-4.22621
0.222573
3.46271
-3.68528
-5.92306
16.0366
6.06698
-11.9255
5.85851
-14.2794
3.26356
11.0158
0.311205
0.386071
-0.697276
-0.0683077
8.65246
-8.58415
8.05433
1.19707
-9.2514
-1.07077
-7.93954
9.01031
-0.320141
0.631347
-9.79418
-2.72543
6.52494
-9.36525
-8.18675
5.15538
10.7387
3.00955
-13.7483
8.13648
-6.39696
9.0624
-6.07652
-7.40461
-1.09716
-11.2823
6.91829
4.36403
13.2905
4.25684
-17.5474
-5.36667
8.64842
-3.28176
3.23672
-9.24644
4.22439
-9.02996
-7.92941
6.17916
1.75025
-8.12565
1.88534
3.51485
-3.29227
-8.98079
-0.0542165
9.03501
3.86185
4.19228
-8.05413
-11.2019
2.22107
-4.8852
8.74705
-3.35027
-7.28502
10.6353
9.45186
0.1782
6.70935
-5.77215
-0.937201
-12.0499
-0.124957
-8.28159
8.40655
-12.3292
3.08435
9.24489
-0.0236136
6.78072
8.14974
1.00344
-14.2027
10.4996
3.70309
2.67213
-8.2364
-6.59764
-4.38319
10.9808
-14.8903
14.8903
-6.38758
10.9616
-4.57405
2.8616
-9.24917
-0.258761
0.621295
10.9845
-6.29465
3.85424
8.3213
-5.84865
10.3545
-4.50585
15.3213
-8.56604
-6.75526
6.71723
0.988749
-7.70598
-6.92795
-4.35438
-9.79482
-2.77513
12.5699
-9.20957
2.06822
7.14135
7.42706
7.89424
-7.76014
2.70958
6.54663
-6.84204
8.88538
-0.831051
8.38846
-8.18262
-0.205834
5.19605
3.99097
7.86795
-11.4466
3.57863
13.7475
-7.54852
-6.19894
-9.11207
9.69082
-0.578759
1.92347
-11.0355
15.2047
-14.2033
-1.00147
-9.38876
2.86681
6.52196
-4.39979
-7.67519
-10.6859
2.94821
7.7377
4.14457
6.83996
1.75829
-10.8134
9.0551
-13.8388
12.9261
0.912786
-9.66791
9.40657
0.261335
4.29922
7.08768
4.94639
-0.512782
8.8669
-2.97749
1.09098
6.69917
-7.79015
7.61835
1.97121
-9.58956
-9.90761
3.08827
6.81934
-4.15544
-7.1509
1.19723
-8.79147
7.59424
5.03947
3.29938
-9.31665
0.107081
3.09488
0.653249
-3.74813
-2.23033
-12.66
-10.5032
3.48486
7.01829
-7.61027
-0.0609044
7.67118
-8.26075
-0.882684
9.14343
3.18866
5.06057
-8.24923
3.23117
6.45641
9.18803
1.58908
-6.9448
8.03578
0.474518
-8.08479
-9.15736
7.4626
1.69476
-6.58909
12.0809
-5.4918
-10.4584
3.8833
-9.87318
5.04793
5.81809
9.38666
-8.34336
-1.52982
-2.13153
-7.02583
3.23961
-9.8287
-8.98044
6.75835
-3.28597
-7.171
10.457
-13.5625
7.06269
6.49977
-0.545175
9.61626
-9.07109
9.72819
-0.639323
12.4297
-2.48005
-9.94966
4.76003
-8.15551
-2.15778
9.04658
-6.8888
-0.242782
6.98305
8.70318
-2.8307
-5.87248
0.054095
-7.79712
3.78816
6.84672
-10.6349
8.40795
-4.61979
-9.30969
9.30969
6.09071
-11.4592
5.36847
-7.85604
-5.04978
8.6724
-3.62262
5.03799
-6.75462
-1.4902
-14.2794
-12.8843
4.05371
8.83061
12.6932
-4.82518
-7.86802
12.6793
-8.47971
-4.19959
-3.68348
-7.00244
6.86532
1.14745
-7.71242
-3.27495
9.82207
-6.54712
4.39497
3.84154
-8.23651
6.79828
1.8888
-8.68707
8.25465
-9.50378
1.24913
-8.36662
-1.30128
-3.75654
-7.14642
10.903
3.26735
5.16013
-8.42749
1.23683
-8.24661
7.00979
7.81493
-0.267232
-7.5477
1.42098
6.53847
-7.95945
-6.90364
-4.71282
11.6165
8.08304
-0.268103
-0.287018
0.573586
-0.286569
4.16222
8.26749
-7.93427
-12.038
-3.8632
7.17039
-5.15945
1.90564
-5.28654
3.3809
-10.2142
10.2142
-4.8289
13.0068
-8.1779
-10.1225
6.69392
-0.545779
-0.699774
7.49523
-6.79546
8.44671
-3.95437
2.792
6.34972
-9.14172
-3.92206
-3.28569
7.20775
-10.0674
-4.12561
14.193
16.1746
-12.0598
-4.11483
8.66938
-6.71418
7.63564
1.18953
-8.82517
-3.5379
-7.1317
-10.8331
8.37343
2.45967
0.57112
9.91691
-10.488
-0.0531143
-0.438242
0.491356
10.8742
-10.8742
-7.98817
11.3929
-3.4047
8.32304
-1.52476
-7.75831
-3.83659
8.52453
-4.68299
-10.8142
4.65846
6.15574
10.8899
-7.69347
-3.19642
2.25641
0.582055
-2.83847
-11.5568
8.62263
2.93412
5.72288
-6.79365
-2.63382
10.0675
-7.43367
-5.79924
-5.75752
-9.79782
7.16399
-2.80958
11.8346
-7.09434
-0.10656
7.2009
4.42301
4.31471
-8.73772
9.45186
10.4518
-0.337048
-10.1147
6.99141
4.27555
0.925588
-8.78163
-5.93593
-4.46186
10.3978
8.53392
-7.33669
-10.6397
4.70379
-1.76305
-8.73613
10.4992
-9.63294
7.86989
-8.90685
8.47367
0.433182
-7.66086
-1.24599
-11.9623
2.20819
9.75415
-1.18222
-6.36218
7.5444
0.997055
-10.0022
9.00516
-7.14435
-0.785065
-7.16276
-2.98396
1.82894
1.15502
3.47311
-7.4258
3.95269
8.06716
-8.06716
-9.32535
5.56881
6.89087
9.28376
-3.08025
-6.2451
-1.92034
7.05602
6.83365
-3.36054
8.15325
-11.6874
3.53417
13.2905
-7.44958
0.355244
2.6327
-10.1106
7.47791
-5.515
6.7754
-1.2604
6.90542
3.98447
1.65362
6.73483
-11.4331
13.1544
-1.72135
-7.31369
2.49476
-0.799129
6.34525
-5.54612
-4.1207
-9.44176
6.96525
-11.3587
4.39341
-7.11083
-0.338752
-0.284178
-0.400919
0.685097
1.70764
-7.07431
-7.05329
-1.0157
8.06899
-9.50536
9.50536
6.41865
-10.1479
3.72925
-10.8133
5.31673
5.49655
-7.75543
12.4672
-4.71174
2.77693
13.0639
-15.8408
9.6481
-2.1356
-7.51251
10.8562
-6.36724
-4.48897
8.03269
2.82352
-0.342343
8.59699
1.34576
6.51383
-7.85959
4.57718
-10.0744
-5.73935
13.2685
-7.52913
-4.24261
-4.55425
8.79686
10.3212
-2.45323
9.76261
1.16815
-10.9308
-10.6296
4.56861
12.0479
-4.51948
-7.52844
9.79781
-7.14463
-2.65318
1.76758
-0.590095
-1.17748
-16.1242
6.68199
-6.47502
-9.64914
5.64939
-3.74375
9.96403
-2.37137
-7.59267
-8.42554
2.11094
6.31459
-4.37457
12.5278
9.32723
-0.566617
-8.76061
12.9096
-2.94561
1.00681
0.760766
-14.5682
10.5691
3.99909
-9.07984
-1.73344
-5.41694
9.70217
-4.28522
5.64149
-7.19396
1.55248
9.78804
-6.99604
1.62235
-8.74253
7.12018
0.251501
-3.42477
3.17327
9.94091
4.27949
-14.2204
1.47818
-9.80925
11.3901
-9.41549
-1.97462
4.2893
-4.0378
-14.0775
-0.881035
16.4601
-6.51915
1.59863
6.89599
-8.49461
-6.25665
7.85528
-2.87866
1.27474
6.12505
1.87785
-8.00291
-7.13444
1.61944
2.00178
5.65145
-7.65323
-0.107063
-7.75113
7.8582
-4.18705
6.181
-6.64153
9.09199
-3.6533
-5.43869
10.8218
-10.8218
-4.03432
-7.6313
5.41683
-15.4842
-1.51881
-0.0414869
1.5603
7.7753
-8.95752
4.80005
4.83001
-6.12822
-4.08793
10.2162
-2.19749
7.39744
-5.19995
11.0279
-6.83327
-4.19461
-8.89479
-5.53092
14.4257
12.1212
5.59483
-13.9585
4.1104
9.84808
6.58924
-9.49201
2.90277
0.316838
8.09798
-9.58982
-4.36866
2.59794
6.67389
-9.27183
-11.5066
7.07586
4.43074
-0.462913
8.42476
-0.92792
-10.089
7.94038
2.14862
-2.25413
1.29474
-11.474
8.74463
2.7294
-9.23211
8.69373
0.538372
-10.1207
4.85332
5.26737
-12.3033
6.99537
5.30795
0.0415828
0.301703
0.121012
-0.422715
-7.23181
9.37457
-2.14276
-3.12251
-4.29417
7.41667
-11.8518
7.66479
-6.28065
8.44395
-2.16331
1.02455
9.79727
-1.66665
-0.587486
-9.6201
3.33945
-11.223
3.46755
-9.82225
1.5615
8.69756
-10.0438
-9.19488
1.49589
7.69899
-7.676
-1.3203
8.9963
8.64479
2.7898
2.98278
7.44284
-10.4256
-3.58582
-5.95643
7.66307
-7.96686
-6.57009
7.18673
-1.93393
-7.68616
0.863259
-9.04567
8.28489
-2.56854
-5.71635
11.0774
-7.31945
-3.75797
-1.68746
-1.2965
-8.01724
11
-0.15793
-8.98866
-8.86848
9.45076
-0.582276
-10.066
5.59485
4.47119
1.73838
5.26854
-7.00692
0.327023
-9.19551
-5.62096
10.044
-8.69455
1.93877
9.54545
-1.9395
-7.60595
10.8178
-10.8178
11.0765
-3.07702
-7.99951
-2.77109
-3.22824
5.99933
2.31024
-1.54297
-0.76727
-5.23685
2.46576
-0.226107
-2.91243
3.13854
8.83977
-0.62121
-8.21856
10.0626
-0.494936
-9.56765
-0.554748
11.0108
-10.456
-10.5032
6.2751
-8.63525
-10.0569
-1.20345
11.2604
-6.62177
-4.85226
-12.4489
2.66591
-10.7222
1.41802
9.30419
-9.66878
2.58538
7.0834
-0.0016763
-7.20008
0.296444
-6.4773
0.044513
6.43279
5.7942
3.75124
8.75562
2.27226
-6.14308
6.03669
-9.67265
2.37051
7.30214
-2.83112
-6.47857
7.62889
1.83254
-9.46143
0.0321013
-7.72645
7.69435
9.93031
-0.282208
6.10286
-11.8422
0.216298
-0.269412
0.0470118
-10.7692
-4.63513
7.23307
-4.38365
7.57231
-2.17725
8.93048
-6.75322
7.27351
10.9887
-3.35978
-9.98097
-4.58719
2.69852
-2.92463
1.35734
-11.3383
4.59756
-12.3253
7.72774
2.03505
-9.14588
2.14145
7.65264
-9.79409
-7.22088
0.750745
6.47014
-12.8156
3.92076
3.11713
-10.338
-11.9115
10.6409
1.27061
-1.99181
8.72558
-6.73378
-9.74618
14.4926
-4.74645
-3.34892
15.0918
-11.7429
-10.3761
2.19273
-2.99779
0.805059
-9.51164
-1.11794
-4.28024
7.14258
5.81984
-3.81806
6.14779
-11.4674
5.31961
0.329413
-8.79656
8.46715
-7.76357
4.35513
-9.95281
1.49207
8.46074
5.47363
2.50272
-7.97634
9.28125
-3.86679
-5.41445
-11.7488
7.86871
3.88014
-10.543
9.30569
-0.465919
7.16579
3.17281
-10.3386
6.87371
-9.03149
-6.21562
-5.53322
7.41279
-0.188933
0.698496
-0.509563
8.90304
-8.90304
-6.09943
4.93657
1.16286
0.543419
-0.732352
7.27594
2.00531
-7.41396
-4.09264
1.84868
-0.767226
-1.08145
4.03779
-9.01598
4.97819
7.97797
5.12916
-13.1071
4.95123
4.58211
-14.0766
3.77544
10.3011
-17.2187
4.12664
6.6067
-5.36988
10.9448
-10.9448
-0.4274
-8.45073
8.87813
-6.38738
-0.8127
3.45008
-9.83746
-0.26218
-2.29417
8.43229
-6.13811
-10.1846
7.89045
5.0639
-12.062
1.12528
-10.2882
9.16289
8.10913
-8.23409
8.2858
-6.25651
-8.75778
9.88306
1.96937
-0.120686
-9.25866
-6.34042
15.5991
0.519362
7.56368
-6.41178
-12.1719
2.91328
3.70011
-9.82833
-4.44924
-7.99967
3.99157
-7.11408
-4.39821
-2.06883
6.46704
-0.0117325
-9.22273
9.23446
-2.82904
-12.3653
15.1943
-9.19726
9.19726
-3.62244
-7.11442
-9.54766
9.54766
1.67644
-1.67644
11.4468
-5.44898
-5.99784
9.76478
-10.2568
0.491996
-7.92027
5.26354
2.65673
-7.92401
8.49513
-7.05587
4.85838
7.56717
1.52483
2.94272
8.13381
1.0408
1.26944
-9.62968
9.62968
-5.11202
-2.84656
7.95858
2.90609
-8.68024
8.1255
-0.845335
-0.208388
1.05372
2.92547
-6.84753
-4.59244
5.9382
-8.23556
6.68678
1.54879
-9.11538
2.51774
1.8572
-1.18679
-0.670409
-9.03298
9.67654
6.83543
5.63175
-2.75105
-8.08205
-4.66692
-3.20721
7.93379
-3.59579
-4.32448
8.26793
5.47953
10.1469
-2.11577
-8.03112
6.26282
5.0846
11.8617
-7.41969
-4.44197
-0.327008
1.61345
-1.28644
3.08663
-8.13641
9.57461
-5.85114
-3.72347
6.67673
-9.37688
2.70014
-0.251622
0.797504
-0.545883
-9.9516
10.528
1.84282
-8.59465
6.75183
-13.3129
7.35839
5.95447
0.117426
-9.31231
7.45375
3.99409
-6.85789
-9.10107
9.07812
0.0229575
-9.74618
7.83714
1.73747
-0.493828
0.493828
-7.21376
6.66858
-0.338511
0.164992
0.17352
2.54683
-8.91407
-6.13475
10.2419
-4.1072
-10.2377
6.74091
3.49677
-2.30579
-7.56769
9.87348
15.0771
-15.0771
-10.3218
8.01606
8.59557
-11.4984
2.90287
0.0295583
8.56601
0.0164033
-9.24851
3.14788
-0.955142
-3.57123
10.0962
1.48824
0.368955
-8.57303
3.46101
1.75947
-2.93443
-3.165
-10.3654
-1.15753
11.523
-1.81731
-8.79283
10.6101
6.09801
-10.9269
9.63485
-9.63485
8.38253
-9.29688
0.914352
5.16315
5.5597
9.51741
3.44278
-2.09631
-1.34646
8.26164
-3.00985
-5.2518
-6.32593
-2.02086
8.34679
10.6942
-6.80324
-3.89098
1.037
-8.60469
-10.1333
4.88969
1.91737
-8.05212
-5.32973
-4.02665
9.35638
-9.30116
7.5834
1.71776
1.82638
-0.450881
-1.3755
-4.58273
-1.36272
5.94545
-8.20975
0.285735
-0.981712
-8.9711
15.3915
-14.4289
-0.962633
1.31829
-0.7837
-0.534591
3.81171
8.86758
1.04859
7.16921
8.08042
0.579176
-8.65959
6.57411
-8.63806
2.06395
-7.35296
3.135
-9.38876
-5.03928
10.3638
-5.32449
0.228589
7.27584
-7.50442
-6.61923
11.4793
-4.86009
8.74309
-8.74309
-4.83735
1.52572
3.31163
-10.0489
3.94288
6.10601
11.3305
-3.69084
-7.63966
1.14304
10.1875
-4.15977
11.9357
-7.77596
-2.58093
-3.99945
10.1439
-6.14443
-10.2518
-0.473419
1.16534
-0.882444
-0.282901
-0.164992
0.0816232
0.0833685
5.7585
-9.91827
1.72463
-7.57328
-2.13627
2.71832
6.42218
4.7823
-11.2045
-1.71457
9.27716
-7.56258
9.40605
-11.3433
1.93729
0.213604
-8.13596
7.92236
-5.30535
7.44679
-2.41935
-5.81622
-7.88353
-0.274323
7.89267
6.38489
0.324463
10.573
-10.573
10.8702
-2.81618
-8.05403
9.13153
-7.5307
7.75929
11.0505
0.278286
-9.14003
1.75904
7.38099
-7.82943
9.54572
-1.71629
-6.71538
-3.26279
9.97816
3.05964
6.34641
-4.09396
11.9523
-7.85831
6.32646
5.55378
-9.64774
-9.85259
5.25144
4.60115
8.52913
-9.18975
0.660622
8.71137
2.67874
5.25418
-8.9721
4.97544
3.99666
-0.164992
2.51839
-9.13762
5.9275
5.14992
15.9564
-18.1868
-11.5968
-0.106204
11.703
3.65565
8.20601
-9.74893
9.74893
8.68591
-1.90936
-6.77655
4.84408
-10.1738
1.29325
4.34823
-8.30372
0.865188
-4.25129
3.16963
5.73341
0.585106
-8.03883
7.45372
0.739903
8.15621
-8.89611
-7.58261
-0.686169
8.26878
-10.9947
9.06076
-8.16709
3.23981
4.92729
0.033705
-0.487593
0.453888
-6.5344
10.3534
-3.81905
-6.82372
0.563463
6.26026
1.3275
-7.86191
9.74562
-4.272
2.22913
-10.2173
-7.32528
9.15781
-10.8581
14.8284
-3.97036
5.40764
-10.5484
5.14074
9.00603
-8.53343
-0.472595
-1.31509
6.96654
-13.125
2.75957
-6.75998
6.79208
2.03736
11.0272
-2.34127
-1.464
7.58905
0.185358
-7.76797
9.48602
-2.93436
-6.55166
-2.96756
2.96756
10.3489
-12.0507
1.70178
2.74264
8.0577
0.930071
-8.98777
-9.48408
6.19811
7.53851
3.15571
1.64799
5.18673
-6.83472
-6.84726
2.26453
10.3181
-10.3181
-0.416864
10.5049
-16.4348
5.9299
2.49975
-9.57271
-4.46328
-4.63403
9.09731
-4.65571
-3.44269
8.09841
-9.93035
0.132535
-2.76144
-7.16891
7.8187
2.42324
3.55448
-9.85937
6.30489
17.1028
-6.4021
-10.7007
7.07705
-11.6642
4.58711
-6.34032
-6.97254
-5.24657
8.80105
3.26844
4.0601
-7.32854
-7.42784
-1.47442
8.90226
-4.26842
8.86597
-2.98684
-7.76516
10.752
-1.42218
-2.53041
3.9526
-9.63177
6.60435
3.02742
6.91987
-8.91168
2.58764
4.24601
9.05881
-9.05881
-3.39553
6.66397
-15.4685
14.0961
1.37243
8.38986
-6.81315
-2.15895
3.06191
7.23004
-10.292
-8.95164
9.828
-0.876369
6.61667
-5.42714
3.92891
-7.92837
-5.2906
4.66056
-7.86995
10.415
-8.49766
8.76061
3.93259
-13.8205
12.1863
1.63416
10.1812
3.08728
-1.17621
-7.351
8.52721
-7.23534
9.07815
6.01854
-14.6395
8.62094
-9.46643
8.29022
-12.0661
7.3945
4.67165
6.71027
-13.452
6.74178
7.22256
-7.48979
15.2002
-7.22227
0.392635
-7.82047
-5.9935
-4.24418
-8.32545
2.25897
6.06648
11.7701
-8.77848
-2.99158
7.3082
-13.0428
2.91423
10.1286
6.6366
-0.875996
-5.7606
9.11507
-9.11507
11.9623
-10.8728
-1.08941
-13.2109
8.71841
-1.49585
15.315
-15.315
1.47148
1.82602
-3.2975
-8.19025
4.34211
3.84814
1.31468
-10.2466
8.9319
8.09522
-6.67424
-8.58744
1.23644
6.0126
-8.99944
0.58201
-1.42735
4.65842
-1.56354
-11.2982
1.52392
9.77427
-4.69459
-4.67066
13.6632
-10.634
-3.02921
9.41386
-4.00622
1.18308
-11.6884
10.5053
5.65886
7.17106
1.11383
0.356623
-7.70648
7.34985
-15.6384
13.7342
1.90419
-0.354561
0.354561
-0.807321
8.35973
-7.55241
-11.2224
-1.08093
-2.05604
-6.3695
2.38389
-8.82254
6.43866
2.13332
-8.45925
-10.3414
10.3414
-9.45168
10.9084
-1.45676
9.86742
0.960833
-10.8283
-14.5371
11.708
10.5159
-10.0313
-0.48458
-8.20064
-4.68368
-0.20631
-7.59602
7.80233
-14.0766
7.10189
-6.38049
6.73712
11.1958
-4.48558
8.19998
2.31592
-6.89031
-3.19869
7.86222
-8.26132
0.399095
-7.74119
0.361942
7.37925
-5.4611
-2.28009
-1.32949
2.80097
-0.381226
-8.19523
8.57646
9.80954
-9.59673
-7.98771
7.60648
-3.03858
6.59678
-3.5582
1.38768
8.52923
3.33557
-6.37415
7.70926
-7.86719
-10.7464
7.23081
3.51562
-5.0034
-9.16089
9.16089
9.32567
0.439115
-7.39076
-8.34651
0.76508
7.58143
10.0846
-2.37536
8.63168
-2.04243
6.47139
-11.537
5.06564
-0.389057
2.21508
-3.51778
2.18828
-7.21312
0.735822
5.69402
-7.51159
1.81758
-3.28426
4.50828
-1.22401
-2.98091
-5.20172
0.646438
6.99753
-7.64397
3.83976
1.22588
7.42254
8.17566
-0.72191
-3.24502
-6.38675
-12.4865
11.086
1.40048
3.09233
5.65076
0.971432
-7.25528
6.28385
-0.4789
0.0406585
1.8251
8.52381
7.33421
-8.80863
6.09299
-12.3627
6.26971
-0.900068
8.61688
-7.71681
-6.22593
10.7435
-3.4093
-2.91015
9.00315
-0.818449
7.33228
-4.35326
-8.18487
-10.1265
1.04669
-3.40081
-3.32788
-6.42106
-8.0975
7.29837
-15.2135
2.57167
12.6419
1.63511
-0.34037
-6.79121
9.17509
-0.152265
-9.09973
9.25199
6.14053
-5.49409
9.99888
-7.11446
-2.88441
0.428605
6.20799
-9.37237
9.37237
0.529094
-8.3208
7.7917
-9.03017
7.71721
1.31296
7.4861
-9.64941
8.56758
-11.3244
2.75678
8.96434
-16.7988
7.83448
0.162366
8.40521
-6.33277
10.495
4.04751
-7.58028
-3.01478
11.9791
10.4446
-2.79577
-7.64879
-5.71508
-0.774616
6.4897
-7.36735
10.6309
4.10297
6.85866
-4.58927
-6.43859
11.0279
6.91522
2.76328
-9.6785
-15.1837
11.1604
4.0233
-1.54803
-1.21865
-8.27082
8.27082
-4.73946
9.44664
7.16617
3.27839
-4.07129
-3.70937
7.78066
-6.28274
-2.19169
7.22968
-6.82954
-2.20063
-1.01373
14.4079
-4.61321
-9.79466
6.28609
-10.3574
-2.86712
4.54535
-1.67823
-13.9904
5.54397
8.4464
9.05594
-7.74126
-3.14
-5.77951
8.91951
0.248733
-9.64981
9.40108
-8.76839
5.62838
0.573227
-6.57334
6.00012
-4.12897
-11.5094
9.48602
-5.46612
5.22334
6.38439
-9.16803
2.78364
-6.76399
-1.50683
-3.75549
-4.56996
-1.4711
7.94249
-2.52201
8.62487
16.1033
-10.6224
-5.48094
-1.94812
8.33251
-2.71328
-4.13609
6.84937
13.0811
-10.444
-2.63705
-6.69862
7.01546
5.62696
-9.37691
14.576
-5.19904
11.1484
-2.73763
-8.41076
-0.83829
8.17257
-7.33428
-2.65703
-6.97265
10.5375
-2.36179
11.6061
-0.457669
-11.2917
4.59304
-3.52097
-11.5155
-0.971063
-4.69879
-8.40952
13.1083
2.0812
-8.54639
6.46519
-12.0528
8.26132
3.79149
9.94425
2.55254
2.31777
-9.03315
-4.07386
-0.71934
4.7932
-2.78195
-6.76571
-6.80091
-2.46759
9.2685
-7.63489
9.51957
12.0549
1.02623
-8.50049
0.865596
-4.0044
-1.76775
8.74654
-0.688845
8.8322
-0.474732
-8.35747
-10.9691
12.8194
-1.85025
3.74755
5.77202
-9.21768
2.79217
6.42551
-1.89652
-9.07263
-4.53542
7.40222
1.3032
5.37353
1.27708
-0.908754
-0.368323
10.7138
-10.3264
-0.387396
-11.8581
8.32019
-0.337117
0.834695
-0.497578
8.58623
1.86556
15.6687
-15.6687
-8.61075
-3.47945
10.5635
-7.08407
-0.950043
-7.25214
8.20218
-3.36829
7.07621
-3.70793
7.69157
-2.99199
-4.69958
-3.19564
-7.05141
3.86043
7.01379
1.07426
2.75263
-3.82689
8.03385
3.9284
-8.9649
1.81848
7.83109
6.61864
-6.08954
-5.10145
8.849
8.04587
1.75194
1.27635
6.76952
-8.47971
-6.97223
11.5011
-4.5289
4.7976
-12.4764
7.67878
10.4792
-3.17833
-7.30085
-5.52933
-1.67721
7.20654
3.82044
-8.28372
-6.08416
6.36913
-6.81566
2.68807
4.12758
-8.6932
2.40779
6.2854
-1.04993
8.21572
1.75531
6.95135
-8.66592
1.25577
8.85281
-10.1086
11.4962
-10.9158
-0.580464
0.495887
7.14311
-7.63899
5.78155
3.22448
-9.7989
-1.73813
-8.79958
-1.24931
8.56545
-7.68166
-0.883799
-13.9906
12.8331
7.4645
-5.13675
-2.32774
-8.25134
2.53625
-7.24469
9.76628
7.16466
-9.18552
11.0414
-0.894524
3.80032
-5.86915
-9.3614
10.6172
-6.65532
9.04481
-2.38949
-8.17911
4.9719
-9.91595
0.449519
-0.165773
10.645
-7.78602
-1.88276
0.460949
-7.60558
9.32723
-16.4701
7.09316
9.55771
1.92161
11.4193
-6.2952
-5.12412
11.5066
-0.0873168
-4.01965
-7.66776
-7.25696
5.14119
8.87161
-1.90636
-1.48864
-8.52748
10.0161
4.89539
12.2074
-9.24121
6.56849
2.67272
-1.17935
-9.96346
11.1428
10.2655
-8.24931
-2.0162
2.31006
-9.85857
-8.2465
-0.096867
-8.61513
-7.02231
1.83201
-9.06382
-14.5033
1.84474
12.6586
-9.81396
9.81396
7.3742
8.64716
-9.94137
1.2942
-2.72517
-1.98285
-7.25837
-7.47011
-1.14275
9.78991
3.97304
-3.31979
-7.19655
3.05263
6.58222
6.64947
-6.15359
0.465912
-0.164209
-6.81566
8.85729
-0.601149
-8.25614
11.8843
4.57573
-8.46664
9.77696
-0.91967
9.58565
-11.9449
2.35925
0.223461
7.52108
-7.74454
-1.40568
-6.73454
8.14022
7.79302
-6.05464
7.81078
-7.58732
-12.1961
3.46
-9.34647
-0.994915
-9.01564
8.82642
0.189226
7.12824
-6.88828
-5.30785
-11.8945
-3.57397
-6.90451
8.06189
-5.00225
-12.4625
8.33688
-5.71639
-0.27354
5.32036
-5.04682
9.29855
0.742474
-10.041
1.60967
5.0102
-6.61987
-11.901
0.602799
7.58641
-6.08302
6.66812
10.373
-10.373
10.4796
-15.1784
-10.9691
-4.93048
-4.29963
9.23011
-5.808
-3.56887
7.04573
5.86391
1.24891
-5.42658
4.17767
-9.18015
4.52443
6.14148
-9.70135
2.42793
7.27343
-3.50113
-5.19164
8.69277
-5.93307
5.11462
-9.06047
-10.7394
-0.120932
10.8603
7.72844
1.35613
-9.08457
10.3535
-10.0558
-0.29775
2.72454
-9.69678
8.1346
3.3209
4.67021
4.34178
-9.01198
9.45812
-0.180959
-1.67973
-5.84871
6.30393
0.272768
1.41486
7.12238
-8.53724
-9.67265
9.92024
-1.74016
-8.18008
7.21634
4.48069
-11.697
-7.67486
12.4725
12.0083
-4.61876
-7.38959
-3.95723
-12.7523
16.7095
0.411557
0.548857
-0.960414
6.22902
-12.4946
6.26555
10.2861
-8.73931
-1.54681
-10.2406
2.00188
8.2387
-11.5624
0.129306
1.1674
0.15089
11.0074
-3.17499
-7.83238
3.8073
6.76571
-2.90926
9.13828
0.457989
-10.6986
-0.475521
-7.05108
6.13074
0.920342
-7.48049
-4.57232
-0.727599
-2.23997
-15.698
17.5568
-1.85881
-9.26629
8.79996
0.466328
-3.94961
-6.86459
6.00307
9.38847
0.354953
0.810392
-11.4185
11.6158
-9.09741
-13.7988
7.90146
5.8973
-3.74013
15.8613
5.37326
6.63509
3.13978
-9.82266
1.99323
-10.5273
3.33449
7.19281
-3.9206
-10.254
11.0281
-0.774116
-6.58265
-2.37628
2.95291
-8.08388
-8.63467
8.38136
0.253313
-2.51824
-5.58547
7.20782
-8.73532
8.73532
-0.327567
-8.3071
10.0626
4.56376
4.36579
-10.2128
5.847
9.11907
8.57836
-8.57147
-0.00688638
-5.32366
5.84302
-14.767
4.62782
3.08046
7.73731
9.09262
-8.63425
-2.72441
-11.5509
6.60652
4.94441
-6.62293
-2.57433
10.299
-10.299
9.85886
-4.22876
-5.6301
-1.92056
6.896
-8.21229
7.03133
1.18096
-9.64143
9.64143
7.28985
3.42394
3.03615
4.8846
-7.92074
0.360944
-0.612566
7.08278
-5.47311
6.60581
-9.41539
3.57911
7.2911
-1.86962
-5.54434
-10.3397
11.2496
-0.909837
8.44139
1.41746
9.25613
0.208866
-9.465
-11.8349
8.8893
4.84784
-15.0944
-10.7868
5.90159
-7.68029
-4.15463
8.99524
-1.76556
-8.89474
11.4801
-16.3939
9.02654
3.27642
-12.0743
8.79788
7.93146
-5.79814
-7.3756
10.3238
-9.24897
2.46127
6.78769
-11.0874
-2.71135
-3.77131
-2.98874
6.76005
5.1837
6.89718
9.23169
-1.95575
1.99543
7.23626
-2.63512
6.43544
-2.85684
8.4517
8.75447
-8.04672
-0.707752
-7.7892
-3.2055
-3.68576
8.35596
-3.33878
13.8437
3.5535
-10.1236
0.640777
2.75542
-6.52673
-9.94297
3.58079
7.22515
1.03649
2.69181
2.43443
-5.679
3.24457
-9.19505
0.212727
8.98232
-4.45539
7.94025
-12.0742
7.83068
4.24355
-11.5631
-0.511099
10.3339
0.404867
9.34705
-7.59279
-1.75425
10.8448
-2.90443
10.1726
-10.1726
-7.69298
-1.55599
1.21653
6.34863
-7.56516
12.3077
7.86755
-6.65102
0.956903
7.7108
-8.6677
3.81663
5.11385
10.7635
-5.12445
-5.63905
-8.61922
0.943221
-3.23714
-5.5436
-9.63909
11.8955
-2.2564
-3.50211
-10.7006
-3.00352
10.3844
-0.650093
6.36221
-9.31393
2.95171
-6.87675
-4.05333
10.9301
8.02027
-0.337239
-7.68303
1.61076
8.25666
8.30607
0.25938
5.92839
-6.03545
-4.70025
-10.7742
4.28177
6.49242
-8.20456
7.08124
-7.14955
-7.81805
-2.95614
-8.89505
7.01117
1.88388
9.26183
-6.37218
-2.88965
-9.47742
8.52094
0.956484
8.00008
0.0326061
0.387552
-0.26654
8.27747
-0.327823
0.327823
7.01344
3.57131
6.14924
-10.5759
4.4267
-0.385038
-5.31146
9.24827
-8.23152
-1.01675
4.82241
4.42586
5.75759
5.74905
-11.1969
-5.19703
0.308595
0.968483
-10.1714
4.45157
5.71979
-7.85913
-2.14527
10.0044
8.59792
1.32232
-8.29982
-0.997056
-0.322586
-8.41994
5.58971
3.49187
-9.08158
-0.562498
-4.49997
5.06247
10.6234
-4.31557
-6.30787
0.762153
-9.71379
9.88557
2.05015
4.15361
5.73197
8.711
-4.33294
-4.37807
2.58024
6.47857
12.0897
-12.0897
-13.5223
10.201
4.89076
-15.9469
10.4901
5.45677
-9.10068
8.24099
0.859692
9.39909
0.894298
-10.2934
4.82994
-7.81869
-8.581
1.98988
6.59112
9.28884
-1.00834
-8.2805
10.2729
-3.65429
8.51243
1.7605
3.35086
7.59395
-1.84009
8.36238
1.2272
-9.58958
0.136486
9.12534
7.40553
-0.392091
8.81767
-3.65477
-5.16289
-0.00732578
-0.187894
-2.00442
-7.87595
0.956972
-7.85318
6.89621
9.89941
-11.232
5.85692
-7.91596
0.362058
7.5539
-9.32953
1.41357
-10.1302
-4.10585
14.236
-2.55255
10.9149
3.24039
0.622278
8.01449
-8.63677
6.35367
0.363552
-7.96063
8.58291
-6.86144
2.78758
-5.98123
-2.25334
8.23457
1.68707
-7.6683
-12.7151
11.9794
0.735709
7.84455
-6.60656
4.74655
-6.61617
9.84838
-8.59112
-1.25726
7.98652
9.10097
-3.83243
14.4079
9.9033
-4.31359
5.0379
-2.45025
2.65231
6.46276
10.9559
-3.78551
8.07345
2.88245
-8.34432
9.16036
-0.816037
7.25125
0.513087
-7.76434
-7.91789
-2.21541
-1.03071
16.4898
-10.047
-6.44283
-13.5503
13.0222
0.528079
-9.19987
-0.472781
0.532322
-9.9657
9.43338
-6.0653
-0.990572
6.41525
-9.29861
2.88337
-7.66392
11.4394
10.6258
-5.83229
-4.79347
-7.07293
4.01207
3.06086
9.10068
-6.01633
-5.31075
-4.54184
-6.01749
-4.7693
2.04874
-2.75709
-3.36341
9.38554
-6.02214
8.08976
-6.6749
10.8246
-10.8246
-8.27132
-0.918431
-13.0912
8.26057
4.83065
-9.05087
-4.04035
6.16342
-5.83092
-0.332503
2.00117
7.09952
-7.90545
-1.5999
9.62866
1.29676
-10.9254
0.718946
2.42893
11.9223
-6.69553
-5.22677
0.979868
-1.04289
0.0630213
7.05165
-4.97045
9.06846
-2.15324
-5.44698
-6.11615
-2.84333
-5.84987
8.1822
-8.1822
0.616534
8.98591
-9.60245
5.61767
-3.30643
-6.39492
9.21638
-3.06859
-8.64909
0.367494
3.11085
-2.3919
14.0006
-8.48181
-5.51876
7.45973
-8.94837
-10.9621
5.44508
5.51697
8.54798
-0.467558
-4.58124
-4.65668
-11.2902
-11.7058
9.19678
2.50898
-9.50805
-1.23134
10.1686
-1.76201
0.632286
-0.632286
4.77437
5.61007
-4.93096
8.90533
-3.97437
-3.21646
-1.4032
8.97458
-7.57138
2.9013
8.00166
-7.8704
10.9222
-12.3912
-3.22288
6.03638
3.02602
-9.66415
-0.483755
3.38442
-8.03779
4.65337
11.3079
-3.22211
-8.08581
1.70415
-0.732422
-0.971732
0.774779
8.26919
9.7997
-9.95855
5.55859
4.39996
-12.9319
12.9319
-2.82619
10.0425
-0.456754
-7.30214
-9.34575
10.5765
-1.23073
-3.19589
-7.01829
0.966059
-1.29307
0.603417
-9.16738
8.56396
-8.52239
-6.01466
3.45584
3.85127
-7.30711
-3.7646
4.83886
-2.17629
7.23687
6.2396
-0.0761812
-0.73432
7.09653
9.83947
-9.83947
7.54117
-4.08533
-16.1911
11.4811
4.71002
-5.72995
-6.05018
10.2221
-4.17189
10.5899
-8.76673
-1.8232
4.977
5.61293
-6.81034
7.99338
-1.18304
-14.0853
8.41546
5.66989
-5.43082
8.06352
-8.18465
2.75383
-5.87856
7.86844
11.039
-7.2976
-3.74142
-1.4178
1.4178
6.03326
-15.5379
9.5046
2.08635
-2.81395
8.72778
2.31124
7.98102
-10.8101
2.82905
2.47503
0.726811
-3.20184
9.10678
2.28608
5.24473
-5.24473
0.401854
7.35704
7.54674
4.37556
-9.72526
1.85949
7.86577
-8.20784
-1.56088
-8.4225
9.98338
7.76977
-6.78102
10.1661
-2.62406
-7.54202
-1.30428
4.00959
-6.19982
4.70666
8.70653
-5.13788
-6.32129
6.10806
-8.60276
2.4947
0.649055
0.203648
-0.852703
11.593
-8.1189