/*--------------------------------*- C++ -*----------------------------------*\
  =========                 |
  \\      /  F ield         | OpenFOAM: The Open Source CFD Toolbox
   \\    /   O peration     | Website:  https://openfoam.org
    \\  /    A nd           | Version:  9
     \\/     M anipulation  |
\*---------------------------------------------------------------------------*/
FoamFile
{
    format      ascii;
    class       volVectorField;
    location    "0.2";
    object      U;
}
// * * * * * * * * * * * * * * * * * * * * * * * * * * * * * * * * * * * * * //

dimensions      [0 1 -1 0 0 0 0];

internalField   nonuniform List<vector> 
97292
(
(0.0979697 -0.905533 0)
(0.0375793 0.868039 1.48322e-20)
(0.019167 -0.935814 -1.79889e-19)
(-0.0113691 -0.927394 1.83044e-20)
(-0.125629 -0.922443 1.71549e-19)
(-0.0376647 0.851163 -1.7551e-21)
(-0.00475854 -0.881113 -6.95697e-20)
(0.0187204 0.866803 -9.59043e-21)
(0.718161 0.561651 6.98146e-21)
(0.012971 -0.831437 7.10052e-20)
(0.289831 -0.854067 0)
(0.268264 -0.84672 3.92316e-20)
(-0.0290459 -0.816218 0)
(0.0634844 -0.950677 1.21877e-19)
(-0.0433646 -0.960206 -5.69571e-20)
(-0.00689351 -0.832952 4.09803e-20)
(0.00136884 0.737008 -1.38508e-21)
(0.717066 0.702174 -5.80772e-20)
(0.867438 -0.0859549 -5.88574e-20)
(0.322532 -0.965259 -2.2764e-22)
(0.0199881 0.730704 -1.3448e-22)
(0.0254252 0.819438 -1.60056e-20)
(0.0548413 0.884891 -9.19031e-21)
(0.0403504 0.855772 0)
(-0.0176306 0.848973 -1.12193e-20)
(0.057859 0.870202 1.11633e-20)
(0.0174649 0.959948 5.92169e-22)
(-0.00872853 0.962806 -2.45181e-22)
(0.0192366 0.791542 3.50519e-20)
(0.00706554 0.811177 1.22456e-20)
(0.57358 0.638904 -2.7944e-20)
(0.321611 0.868705 1.3219e-20)
(-0.0366186 0.993174 -6.72494e-22)
(0.890773 0.0577812 -5.12951e-20)
(0.299231 -0.970077 0)
(1.31489 0.751089 0)
(0.534135 0.89333 0)
(1.39378 0.489867 5.32192e-20)
(0.359307 0.754911 0)
(1.21817 0.70497 0)
(-0.00103832 0.919721 0)
(0.0248765 0.877736 9.84941e-22)
(0.362325 0.69365 -3.69382e-20)
(-0.182241 -0.984668 1.03758e-19)
(0.101665 0.911844 0)
(1.18105 -0.16518 -1.6435e-20)
(1.05981 -0.401585 1.68715e-20)
(-0.0148115 0.898199 -1.13767e-20)
(0.0179464 1.00908 -9.0456e-21)
(0.0420476 0.798585 0)
(-0.0072911 -0.952685 0)
(1.09474 0.432845 5.86193e-20)
(0.0803999 0.265363 0)
(-0.0291842 -1.02325 4.10289e-20)
(0.680294 -0.916996 9.87009e-20)
(0.530178 -0.52527 1.89882e-20)
(1.4366 0.803658 -2.96973e-20)
(0.0694292 0.814883 0)
(0.0439126 -0.848184 -8.83266e-20)
(0.791801 -0.365722 0)
(-0.00294682 -0.981443 1.16151e-20)
(0.584768 -0.536515 1.87357e-20)
(-0.0247894 0.870019 1.70857e-21)
(-0.0405425 0.839538 0)
(-0.0253632 -0.976508 1.24264e-19)
(0.644062 -1.00837 2.74744e-20)
(-0.0556179 -1.00686 0)
(0.0656552 -0.918952 3.86275e-20)
(-0.0509515 0.858891 1.75233e-20)
(0.0778607 -0.00840695 -2.80745e-20)
(-0.00749935 0.889279 0)
(-0.0669051 -1.00454 0)
(1.22883 0.0405895 0)
(0.055684 -0.958379 5.41385e-20)
(0.030183 -0.010087 0)
(0.0770391 -0.899213 9.26206e-20)
(0.931279 0.0502013 0)
(-0.00188228 0.95281 -1.26453e-20)
(0.063004 0.893057 1.76486e-20)
(0.289248 -0.761605 -4.19799e-20)
(0.031831 0.949003 0)
(0.155069 -0.913985 -8.48698e-20)
(0.0193951 -0.799525 -3.60613e-20)
(0.0077891 0.927746 -3.46506e-22)
(0.287513 -0.975474 1.89097e-22)
(0.416068 -1.09235 0)
(0.13597 0.132157 0)
(-0.0246141 0.947151 2.14752e-20)
(0.434799 -0.410074 0)
(1.12027 0.876013 1.84386e-20)
(0.0263611 -0.0206976 -1.13329e-20)
(0.00162216 -0.920212 -1.81135e-20)
(0.271058 0.051087 0)
(0.229253 0.270756 -2.05349e-20)
(-0.0315752 0.884573 8.6466e-21)
(0.0480594 0.832511 -1.33184e-20)
(-0.0173737 -1.06237 -1.25909e-19)
(0.171418 -1.14892 3.20391e-20)
(-0.0558607 0.859232 0)
(0.591747 -0.401753 0)
(1.04551 0.299218 0)
(0.417431 0.777979 1.93611e-20)
(0.358719 -0.690478 3.56633e-20)
(0.116369 0.13069 0)
(-0.0813366 0.943877 4.46479e-21)
(0.43092 0.546442 -1.45262e-20)
(0.0129802 0.91242 1.16311e-22)
(1.18213 -0.0873285 5.20348e-20)
(0.0766991 -0.928258 -9.61182e-20)
(0.567794 1.0299 3.57493e-22)
(0.540626 -0.484826 -5.16325e-20)
(0.0517355 -0.917067 -2.81105e-20)
(0.0408558 0.896581 6.18241e-21)
(1.00472 0.395109 0)
(0.00254559 -0.959111 4.1766e-20)
(0.145638 -0.898398 2.38832e-20)
(0.0717385 0.876275 0)
(0.0399655 -0.864111 4.69849e-20)
(0.0188299 0.88586 0)
(1.09925 0.144458 5.88762e-20)
(-0.084877 0.952536 -4.28062e-21)
(-0.017479 -0.943476 0)
(0.0304442 1.0469 -1.09017e-20)
(0.128252 0.0836032 -1.30435e-20)
(-0.094532 -0.980047 3.16142e-21)
(0.211388 0.635069 3.15567e-22)
(0.105247 0.0625474 -1.11547e-20)
(-0.117236 -0.992234 0)
(1.38924 -0.0633052 0)
(0.199911 0.657425 -1.39639e-20)
(1.08344 0.722947 -1.27622e-21)
(0.0558169 0.803147 -1.03283e-20)
(0.0100459 0.915323 0)
(-0.0330724 0.830815 3.44172e-22)
(0.578378 -0.532753 -1.92085e-20)
(0.234282 -0.984375 0)
(-0.0270986 0.911655 -2.27427e-20)
(0.874571 -0.435623 -4.21086e-20)
(0.13842 0.441224 0)
(0.275014 0.062285 1.19136e-20)
(-0.0454906 -0.920627 -3.97509e-20)
(0.00731841 1.00844 1.26142e-20)
(-0.0587671 -1.0002 8.37763e-20)
(1.06367 0.724182 0)
(-0.0204724 -0.949739 0)
(1.01385 0.675883 -8.8646e-21)
(0.176003 -0.958363 -2.18946e-20)
(-0.0283273 0.921753 -1.66359e-20)
(0.71628 -0.362448 3.13288e-20)
(0.0439663 0.855745 -7.38791e-22)
(0.10631 -0.769424 -1.40014e-19)
(-0.00753942 -1.0057 5.39477e-20)
(0.082735 -0.960754 9.54598e-20)
(0.423741 -0.975576 5.52775e-20)
(-0.0337998 -1.01991 0)
(0.868487 0.700452 1.22966e-20)
(0.0681494 -1.15848 -3.20187e-20)
(-0.0449132 0.871774 -7.50131e-21)
(-0.147058 0.924254 1.16646e-20)
(0.510322 0.54052 -1.46283e-20)
(0.072423 -0.94014 -2.12534e-20)
(0.00413377 0.925777 -1.75002e-22)
(-0.0765685 0.843628 2.49898e-20)
(0.0361691 -0.0124048 0)
(0.842944 0.743309 1.65864e-20)
(-0.104742 -0.820207 5.03085e-20)
(0.111596 -0.88754 9.25327e-23)
(0.0383423 -0.0219811 0)
(0.137554 -1.0781 9.94563e-20)
(0.446737 0.606728 8.12295e-21)
(0.637575 -0.426845 -6.44286e-20)
(1.25482 0.678549 0)
(0.0720717 -0.937453 3.37482e-20)
(1.18016 0.332321 -4.2227e-20)
(0.0179957 0.909379 0)
(0.559884 -0.511236 -7.05308e-20)
(1.09688 -0.458353 -4.57532e-20)
(0.768321 -0.427931 0)
(0.260366 -0.336293 -3.3096e-21)
(1.09522 0.658319 -3.34356e-20)
(-0.0263118 -0.996936 -9.337e-20)
(1.4171 -0.418459 -5.17798e-20)
(0.0610116 -0.0431901 -1.29332e-20)
(-0.00419373 0.866134 -9.35909e-21)
(-0.00696131 -0.940589 0)
(0.0254285 -0.857824 0)
(0.0419464 -0.0355112 0)
(-0.100438 -0.879898 3.12868e-20)
(0.0551081 -0.907913 3.9176e-20)
(0.081717 -0.836413 7.99273e-20)
(1.28413 -0.255474 9.27466e-22)
(-0.0349688 -0.881778 6.66763e-20)
(0.0273518 0.879034 7.61888e-21)
(0.480747 0.551326 -1.72207e-20)
(-0.0176868 -1.00479 5.8271e-20)
(0.96992 1.10091 1.86201e-20)
(-0.102057 0.911006 0)
(0.0360929 0.832592 0)
(-0.00104535 -0.901705 -1.50678e-19)
(0.419576 -0.524082 -8.56999e-20)
(0.773701 -0.477734 0)
(0.327685 -0.352535 0)
(0.0337678 -0.943401 -5.33165e-21)
(-0.0457373 -0.898665 -8.6702e-20)
(-0.0335049 -0.996144 0)
(-0.0473923 -0.885172 5.73737e-20)
(1.00674 0.251393 0)
(0.250015 -0.509782 7.65462e-21)
(0.347969 -0.522084 -5.0553e-22)
(1.21353 0.20934 0)
(-0.00115099 0.874495 6.26144e-22)
(0.133917 0.870493 2.70905e-20)
(0.222232 0.895863 1.62644e-20)
(0.0480305 -1.00447 -2.72181e-20)
(1.0052 0.915935 0)
(-0.059371 -0.952856 -1.02111e-19)
(-0.00593301 0.831269 0)
(1.49177 0.12502 3.64246e-20)
(-0.0561464 0.935912 0)
(-0.00315819 0.882268 0)
(0.0686785 -0.00991372 -3.44255e-21)
(-0.0586666 0.971087 2.54408e-22)
(-0.0192445 0.881022 0)
(0.57584 -0.406545 2.88357e-20)
(0.900512 -0.535445 -2.90921e-20)
(0.0327693 0.899552 -2.56752e-21)
(0.0220181 -1.04887 -6.8148e-20)
(0.043485 -0.904695 -2.72012e-20)
(0.0324773 0.9658 2.81256e-21)
(1.17436 -0.582889 0)
(-0.0217969 0.900376 0)
(0.0752928 -0.834417 0)
(-0.0513198 -1.03447 -8.01644e-21)
(0.6555 -0.340307 -6.5082e-20)
(0.710312 -0.363062 3.04923e-20)
(0.0655444 0.873171 3.26599e-20)
(0.919477 0.990008 9.99141e-21)
(0.0722327 0.956943 -3.17598e-20)
(0.0546573 0.9335 2.13685e-20)
(1.10962 0.759446 -1.74931e-20)
(0.0628423 -0.993207 -9.55689e-20)
(-0.0204556 -1.00341 -5.49029e-20)
(0.0526335 -1.015 -4.51025e-20)
(0.00246438 0.965205 1.12468e-21)
(0.0756508 -0.912199 0)
(0.929813 -0.570353 -1.57055e-20)
(0.571836 -0.801298 1.12783e-19)
(-0.0867509 -1.02872 -4.44951e-20)
(0.0896061 0.446144 -9.64151e-21)
(-0.0782879 -0.878711 -8.16136e-20)
(0.00451188 -0.863527 0)
(0.0777955 0.864453 0)
(0.532853 0.566838 -3.80418e-21)
(-0.103405 -1.01188 -4.28858e-20)
(0.0481364 -0.841543 -6.84662e-20)
(0.201218 -0.871441 5.52072e-20)
(-0.0588644 0.983639 0)
(0.064235 0.459619 0)
(1.4702 0.177038 -3.57544e-20)
(-0.0979538 0.925627 1.51958e-20)
(-0.0759048 -1.01023 0)
(0.0469205 0.886272 0)
(0.00143728 0.891203 0)
(0.557012 -0.533674 0)
(0.488442 0.960632 0)
(-0.0078843 -0.904622 0)
(0.0104915 -0.947834 7.13844e-21)
(0.12563 -0.974404 -2.64327e-20)
(0.047052 -0.984025 0)
(-0.0534342 -0.919065 2.47729e-20)
(-0.0117304 0.963163 1.32745e-20)
(1.19942 0.460613 3.41932e-20)
(0.0614596 0.91132 -2.28108e-20)
(0.040711 -0.868935 0)
(0.00616297 -0.912627 -5.30793e-21)
(0.402646 -0.689734 -3.49469e-20)
(1.04085 0.0758679 5.15137e-20)
(0.0489261 -1.07686 9.60069e-20)
(-0.00534038 0.926534 6.48632e-22)
(1.11623 0.358869 -3.95595e-20)
(1.2049 0.00316616 5.85033e-20)
(0.687506 0.727165 -1.6308e-20)
(0.00688379 0.88656 9.07822e-21)
(0.562259 0.675048 -1.02713e-20)
(0.284554 0.632666 -3.90156e-20)
(-0.0824969 0.92471 -1.51693e-20)
(0.038863 0.866263 -9.27816e-21)
(0.0344343 0.810803 0)
(-0.0277313 0.898289 8.05824e-21)
(-0.0842988 0.906585 -1.36955e-21)
(0.0941678 0.839951 0)
(0.682593 -0.447925 0)
(0.0284376 0.856736 -1.60913e-20)
(0.535573 0.648349 2.87052e-20)
(1.35692 -0.345902 4.89942e-20)
(0.0599575 -1.01947 -1.88315e-20)
(0.0702462 -0.998583 0)
(-0.0255742 -0.888402 -1.14458e-19)
(-0.0278671 -1.02341 -4.52913e-22)
(0.310677 0.700796 3.70782e-20)
(0.717749 -0.304061 -8.2834e-21)
(0.0474167 -0.86117 4.66052e-20)
(-0.0129024 0.808043 -5.86035e-21)
(0.0117739 -0.86495 -8.0978e-20)
(-0.0541015 0.936722 -5.51428e-22)
(0.643626 -0.843719 -1.98169e-20)
(-0.0132137 0.931473 0)
(0.124276 0.896827 0)
(0.0375257 0.848642 -5.19001e-21)
(0.242146 0.764727 2.92823e-20)
(0.00114722 0.84253 7.97154e-22)
(0.0502665 0.828508 0)
(0.319561 0.831025 0)
(0.0539484 -0.0165525 0)
(1.34978 0.0274799 -6.22722e-20)
(0.13236 0.981267 -2.05822e-20)
(1.28738 0.0614362 1.76092e-20)
(-0.0040556 0.812594 0)
(0.44577 0.351669 -2.98596e-20)
(0.057855 0.882469 -1.58667e-20)
(0.605934 -0.966906 -1.55412e-20)
(1.16498 0.101573 0)
(0.0611509 -0.0064359 0)
(0.231952 -0.601351 1.38985e-20)
(0.109945 -0.898595 -1.21837e-19)
(-0.0059574 -0.92703 0)
(0.0450298 -0.676951 -1.17471e-20)
(1.17558 0.0532405 -2.52875e-20)
(1.16233 0.164183 -6.16725e-20)
(0.0426563 -0.987496 2.5265e-20)
(0.0144297 -0.978651 -1.05324e-19)
(0.0354356 -0.956626 -3.45491e-20)
(-0.0511499 -0.979223 -4.35272e-20)
(-0.0875984 -0.918038 1.25511e-19)
(0.0407423 0.0333048 -3.22139e-20)
(-0.00444476 0.902655 0)
(0.0740738 0.94533 -7.07262e-21)
(-0.0423054 -0.882825 9.71428e-20)
(-0.0349657 -1.07021 1.17361e-19)
(-0.0382317 0.744507 1.28375e-20)
(-0.02541 0.907491 -3.31947e-22)
(-0.0149582 0.935937 3.21556e-21)
(0.0429696 0.291141 1.69628e-20)
(-0.0345983 1.00736 8.07042e-21)
(-0.0265603 -0.886466 -6.10203e-20)
(-0.00751789 0.836632 0)
(0.0298962 0.946868 -7.63509e-21)
(0.0297543 0.902072 0)
(-0.00265985 -0.891043 3.26224e-20)
(-0.0743572 -0.938968 -1.70492e-21)
(0.0695294 -0.919016 7.02585e-20)
(0.353144 -0.916933 0)
(0.130749 0.929957 2.19931e-20)
(0.0132116 -0.956338 -3.965e-20)
(0.00731688 0.795248 4.41753e-23)
(-0.0374588 0.774647 -4.20005e-21)
(-0.00306825 -0.877238 0)
(-0.0673365 0.828266 -8.58005e-21)
(-0.291352 -0.619327 1.19989e-19)
(-0.071523 -0.845881 -3.77618e-20)
(0.104354 -0.85948 -4.277e-20)
(-0.0648952 0.882325 5.85089e-21)
(-0.00212248 0.931744 -6.02112e-21)
(-0.0438516 -0.887411 0)
(-0.0364978 -0.924986 1.68166e-20)
(0.0395104 -0.904135 4.12069e-20)
(0.484961 -0.552935 1.10014e-19)
(-0.00391157 -1.08163 1.12911e-19)
(0.191454 -0.180168 -2.93188e-20)
(0.305818 -0.657028 2.95143e-20)
(0.929346 -0.0492698 0)
(0.0147476 0.927321 1.27034e-21)
(1.41075 -0.0389195 2.72624e-20)
(-0.0254127 0.904163 -1.12477e-21)
(-0.0131352 0.885045 -4.75813e-21)
(0.286045 -0.661415 0)
(0.966822 -0.651913 0)
(0.493084 1.14881 -2.08177e-20)
(-0.0359438 -0.971397 0)
(0.0319486 -0.841279 6.12555e-20)
(0.192551 0.620365 0)
(-0.184301 0.977268 0)
(0.724429 -0.281919 0)
(1.13812 0.196242 -6.02129e-20)
(0.0504352 0.878656 -7.86746e-21)
(0.114736 0.67069 -5.54145e-22)
(-0.0311201 -0.916417 -1.43948e-20)
(0.079315 -0.991671 -4.98869e-20)
(-0.0512444 -0.95022 3.50398e-21)
(0.0599638 -0.00338892 1.20761e-20)
(0.00738477 0.860342 4.77985e-21)
(0.0979215 0.663351 0)
(-0.0132636 -0.799663 0)
(-0.0771258 0.854413 -1.34801e-20)
(0.00726172 0.919038 5.79932e-21)
(-0.00317611 -0.950111 0)
(1.05994 0.802206 2.23767e-20)
(0.0516457 0.911403 1.12515e-21)
(-0.0465812 -1.01169 -4.45215e-20)
(-0.0207067 -0.963189 0)
(-0.0640957 0.936861 0)
(0.0349236 -0.972556 -1.31083e-19)
(0.32132 -0.942979 9.65032e-20)
(0.71076 0.693105 -2.33884e-20)
(0.537239 0.714283 0)
(0.143941 0.846695 -2.60935e-20)
(-0.120962 0.969209 1.13626e-21)
(0.372773 -0.928166 -3.16391e-20)
(-0.0166498 0.91299 -3.61207e-21)
(-0.040415 0.923903 -1.62749e-21)
(0.073232 0.15232 0)
(1.34489 0.688348 0)
(1.31826 0.650534 -1.91652e-21)
(0.476257 0.372652 5.84186e-22)
(-0.0308402 -0.981325 -4.35104e-20)
(0.0350135 0.893668 -1.71621e-20)
(0.869251 -0.678821 0)
(0.0252946 -0.955265 -8.19962e-20)
(-0.089562 -0.897791 -2.144e-20)
(0.0506535 0.120694 -6.55882e-21)
(0.655173 1.08152 -1.42044e-20)
(-0.0567995 0.921661 0)
(-0.0118998 -0.812787 -3.6713e-20)
(0.234233 -0.66215 -6.28579e-22)
(0.0361301 -0.930483 -7.94055e-20)
(-0.0948955 -0.975366 -2.54082e-20)
(0.294994 0.234088 1.73135e-20)
(1.24118 0.530152 -3.69743e-20)
(0.295275 -0.842972 5.54778e-20)
(0.130468 -1.04996 0)
(0.408518 0.219414 1.58777e-20)
(1.25641 0.828198 1.87498e-20)
(1.39579 0.534171 2.48844e-20)
(-0.0194573 -0.946529 4.83406e-20)
(-0.00953826 -0.780015 -1.56376e-19)
(0.122202 0.260273 -1.81519e-20)
(0.0435583 0.887089 0)
(0.148058 0.695371 5.01284e-21)
(-0.0689116 0.910089 -2.72325e-20)
(-0.0106843 0.830382 2.24686e-20)
(0.0592671 0.877572 -2.93894e-21)
(0.774255 -0.19928 8.79294e-20)
(0.219962 -0.711627 -7.50081e-20)
(0.0784896 -0.952545 4.05808e-20)
(0.321058 -0.86217 7.58677e-20)
(1.27947 0.1491 0)
(0.137756 0.100916 -1.67322e-20)
(0.0583997 -0.959569 6.6855e-20)
(-0.00548205 -0.646737 7.25077e-21)
(0.663613 -0.875377 -3.65217e-20)
(0.181589 0.695372 7.4222e-21)
(-0.0848766 -1.05282 0)
(1.36757 -0.314623 0)
(1.24651 0.773047 2.24714e-20)
(1.08856 -0.52911 5.08131e-20)
(-0.0325843 0.847553 1.07129e-20)
(-0.00948548 -0.920877 -1.31471e-19)
(1.08254 -0.731523 5.75811e-20)
(-0.00951033 0.860068 2.85077e-21)
(-0.147252 0.840871 7.09443e-21)
(0.0385787 0.788436 6.03484e-23)
(0.0935479 -1.00826 7.63113e-20)
(0.00203133 0.874577 0)
(0.179904 0.0736762 7.07811e-21)
(0.0595547 0.996184 1.14901e-20)
(-0.0287859 -0.956338 5.21254e-20)
(0.0110766 -0.983963 0)
(0.945177 0.708853 1.66449e-21)
(0.144684 0.102227 1.51338e-20)
(0.0269716 0.0351015 2.17074e-20)
(-0.066369 0.883123 1.7839e-20)
(0.418686 -0.639086 0)
(-0.146954 0.990776 -6.64619e-21)
(-0.00538901 -0.877486 4.99475e-20)
(0.0671821 -0.951693 0)
(0.162077 0.0553587 2.07916e-20)
(0.0523424 -1.04733 3.73535e-20)
(-0.100321 -0.932331 0)
(0.0223492 0.936651 -1.26242e-21)
(1.2411 0.0675827 1.7682e-20)
(-0.08113 -0.966949 8.08035e-20)
(-0.0190611 -0.949038 1.18993e-19)
(1.01878 0.126004 -2.8262e-20)
(1.12713 0.109309 -2.96174e-20)
(-0.0490237 0.915804 2.49982e-21)
(-0.246268 -1.04114 0)
(0.00388883 0.919149 -1.00772e-21)
(-0.117807 -0.920802 -5.89907e-21)
(-0.145158 1.0155 0)
(0.0608793 0.974504 3.54952e-22)
(1.04982 0.0779585 6.53267e-20)
(0.174109 -0.17935 1.89064e-20)
(1.1423 0.197704 1.23511e-20)
(-0.10185 -0.967503 -3.67831e-21)
(-0.035652 0.910617 3.23853e-21)
(-0.0104164 -0.937194 0)
(0.407612 0.613175 1.67577e-20)
(-0.017354 0.938126 1.21853e-22)
(0.0396984 -0.926911 3.5387e-20)
(0.110662 0.911393 1.38136e-20)
(-0.00994252 0.901291 0)
(0.0669982 -0.833788 3.59905e-20)
(0.0614398 -0.876924 0)
(0.411536 0.399095 -1.76011e-20)
(0.20314 -0.0393235 0)
(0.384609 0.384033 1.76254e-20)
(0.109364 0.228158 -1.18487e-20)
(-0.051018 -0.902264 1.14327e-20)
(-0.013023 -0.908724 -6.03909e-20)
(1.12042 0.03941 -6.75315e-22)
(-0.109034 0.842523 0)
(0.0157122 0.883859 -1.20807e-20)
(-0.0245798 -1.01968 -2.57588e-20)
(0.0510361 0.840863 -9.25234e-21)
(0.474246 0.936452 1.33084e-20)
(0.0770441 0.933174 0)
(0.033546 -0.971307 5.0045e-23)
(0.12472 1.04501 -1.05182e-21)
(-0.141814 0.848129 0)
(0.505009 -0.506263 0)
(0.0301684 0.954147 1.25032e-20)
(0.0818158 -0.932839 8.90424e-20)
(0.0171343 0.894102 8.26442e-21)
(0.0511878 0.90935 1.02324e-20)
(-0.0451493 0.940195 -3.11618e-20)
(0.0111186 -0.927412 2.22678e-20)
(0.793218 -0.341798 -3.87454e-20)
(-0.132497 0.879745 -4.91836e-21)
(0.717827 0.844265 1.55662e-20)
(0.0321665 0.0247512 5.22118e-20)
(0.0214854 0.931044 1.05703e-23)
(0.0716664 0.738754 0)
(0.0855715 0.833791 3.45132e-21)
(-0.0303715 0.90465 4.70023e-21)
(0.0512375 0.921284 -9.02987e-21)
(-0.0698691 -0.896646 -2.33381e-20)
(0.707393 0.823152 0)
(0.0691949 0.226453 0)
(0.779998 0.900504 2.37479e-20)
(0.614239 -0.75108 3.25647e-20)
(-0.0292107 -0.954045 0)
(0.0819591 0.77572 -5.51861e-21)
(0.0285917 -1.04659 0)
(1.17619 -0.417311 3.34416e-21)
(-0.10904 -1.06006 0)
(0.0384143 -0.899615 -4.46397e-20)
(-0.0206574 0.865447 7.05712e-21)
(0.294469 -0.892289 2.33081e-20)
(1.00477 0.836764 -7.92014e-21)
(-0.0261329 0.884077 1.1767e-21)
(0.272962 0.140812 0)
(0.432699 -0.726161 -3.95787e-20)
(0.038281 -0.842797 -5.28655e-20)
(0.105862 0.823319 2.04502e-20)
(0.0234395 -0.980954 0)
(0.455394 -0.861415 -9.53834e-21)
(0.028215 0.933242 1.70616e-20)
(0.0984557 -0.93808 -5.24995e-20)
(-0.028256 -0.916323 0)
(0.0256918 0.878166 0)
(0.209845 -1.1481 2.54038e-20)
(0.0359028 0.913162 0)
(-0.149496 -0.880006 1.29101e-20)
(0.178645 -0.986238 -7.28987e-20)
(-0.00505727 0.894213 -1.79124e-20)
(0.198539 -1.09099 5.30404e-20)
(-0.0881889 1.10411 -2.89198e-21)
(0.0440865 -0.0238378 0)
(0.0435663 0.903168 0)
(0.442268 -0.253633 3.22112e-20)
(0.0597047 -0.0210946 0)
(0.0839708 0.799905 -1.46953e-20)
(0.000994642 1.09265 -8.85645e-22)
(0.111525 0.138233 0)
(0.0073108 1.00978 5.60462e-21)
(1.08039 1.05419 3.89092e-20)
(0.416014 0.879902 4.46351e-20)
(1.52302 0.262796 0)
(1.15139 0.933262 0)
(0.0124803 0.812522 6.69894e-21)
(-0.0501963 -0.911797 -3.292e-22)
(-0.0443798 0.721741 2.66682e-22)
(-0.080797 0.857167 -2.12746e-21)
(0.0858249 0.851995 0)
(0.0761595 -0.01718 2.65222e-20)
(-0.00803188 0.800022 0)
(-0.0156362 0.911076 0)
(1.2178 0.0772709 -7.26169e-20)
(-0.00547923 -0.957706 0)
(0.00621125 0.81374 9.43628e-21)
(0.0556405 0.752132 0)
(-0.0016766 -0.924499 9.29899e-20)
(0.119875 0.109389 0)
(1.01735 0.52993 -1.77001e-20)
(0.269107 0.632984 -7.46203e-21)
(1.05139 -0.620023 -7.55757e-21)
(1.02067 0.710601 9.84664e-22)
(0.604274 -0.918999 -3.57518e-20)
(0.532702 0.97861 0)
(0.413693 -0.649596 0)
(0.51698 -0.437774 4.28964e-20)
(0.214102 -0.96646 0)
(0.899285 0.822514 -4.06995e-20)
(0.766177 -0.118541 -6.35417e-20)
(1.01763 0.305232 -2.70118e-20)
(0.0674099 0.873265 -1.15611e-20)
(0.0188933 -0.204105 -1.42611e-20)
(-0.00738618 0.875017 3.29251e-21)
(0.0910743 -0.974939 5.7856e-20)
(0.311025 -0.70543 -4.43266e-20)
(-0.0037281 -0.982423 1.22925e-19)
(0.0903033 0.723951 1.73848e-20)
(0.11036 -0.659542 4.02246e-20)
(0.035759 -0.930623 0)
(0.202542 0.00868198 3.05424e-20)
(-0.0255017 -0.904874 -1.15797e-19)
(-0.089046 -0.868271 0)
(0.01442 -0.875578 3.39575e-20)
(1.0148 0.0519606 -2.94342e-20)
(0.0658432 -0.0867766 0)
(0.104798 -0.693334 -2.27877e-20)
(-0.0397976 -0.914255 -7.30055e-20)
(0.0163622 0.673184 2.96038e-20)
(-0.0674326 0.895941 -1.21846e-20)
(0.154551 -0.0275184 2.97422e-20)
(0.00971625 0.859737 0)
(-0.00861869 -0.974711 1.45213e-22)
(-0.00119013 -0.932092 0)
(-0.0185474 0.838541 0)
(0.495641 -0.551815 -1.96763e-20)
(0.234488 -0.562395 8.03577e-20)
(0.92564 0.966445 0)
(1.20022 -0.0517679 -3.66425e-20)
(0.0404423 1.12723 -4.93142e-22)
(0.0112473 0.959643 -4.65962e-21)
(0.0279199 0.151109 -2.78693e-20)
(0.691317 -0.466493 -7.37245e-20)
(0.0713593 -0.949569 0)
(0.222946 -0.882156 -2.46984e-20)
(0.0150244 0.0748223 -1.46504e-20)
(0.0468548 0.815446 0)
(0.00736364 -0.956645 -4.50911e-20)
(0.149129 -0.998276 -8.48228e-22)
(-0.029493 -0.980356 -2.97588e-20)
(0.0848226 -0.869541 -2.53799e-20)
(-0.0480281 0.863183 8.2645e-21)
(0.0149633 0.877319 4.79845e-21)
(0.217469 -1.1643 -3.77588e-20)
(-0.0568654 -1.00927 3.05715e-20)
(0.0488245 0.00130797 -2.81842e-20)
(-0.0456661 0.856182 0)
(0.0253387 0.00634907 2.4328e-20)
(-0.00253051 -0.892294 2.1063e-20)
(0.507331 -0.81116 0)
(0.0500218 -1.03048 -2.09343e-20)
(0.0849769 0.8622 5.84762e-21)
(1.44008 -0.0471688 1.82928e-20)
(-0.0841633 0.954543 -4.34657e-21)
(0.028493 0.969722 -1.79924e-20)
(0.0650956 0.898855 1.72162e-20)
(-0.0643377 -0.985724 -9.35122e-20)
(0.282661 0.160644 0)
(-0.113658 -0.911196 -9.67968e-20)
(0.157661 0.018229 1.59645e-20)
(-0.0127072 -0.885816 0)
(0.511054 -0.378343 4.17124e-20)
(0.522551 -0.294107 -3.13391e-20)
(1.03935 -0.00809534 0)
(0.0644579 0.959561 9.20298e-21)
(0.583741 -1.00193 4.03531e-20)
(0.0370765 -0.883592 -7.901e-20)
(0.0944718 -0.95685 0)
(-0.0359621 -0.982635 -5.92811e-20)
(1.49706 -0.0789328 0)
(0.245619 -0.202215 2.5251e-20)
(0.0464399 0.984931 1.28115e-20)
(-0.00661858 0.882944 0)
(0.0263054 0.989339 0)
(0.100532 0.923321 -7.58514e-21)
(-0.046885 -1.00299 -3.41895e-22)
(0.440467 -0.797703 0)
(-0.0637498 0.855092 0)
(0.0311189 -0.940627 -4.76681e-20)
(0.135928 0.0336379 0)
(0.109714 0.692375 -3.66003e-20)
(0.0259847 -0.99521 -1.36889e-19)
(-0.00813256 -0.971491 1.16842e-20)
(1.2616 0.389157 0)
(0.118245 0.0152164 0)
(-0.0752948 -1.07 7.77923e-20)
(0.0732391 0.946633 -3.5714e-21)
(-0.0297251 -0.951084 8.73131e-20)
(0.812294 0.559786 2.40088e-20)
(0.32327 -0.733256 0)
(0.0152792 -0.916802 0)
(0.0302271 0.95067 0)
(-0.018437 0.883968 -1.40832e-21)
(0.712931 -0.672277 -8.76158e-21)
(-0.038961 0.896912 0)
(0.047157 0.371663 0)
(1.112 0.00695285 -3.71984e-20)
(0.00425518 -0.943989 -9.10327e-20)
(-0.154969 -0.982358 9.06375e-20)
(0.0523205 -0.932317 0)
(0.0375465 0.386381 -1.63061e-20)
(0.020982 1.03177 0)
(1.00233 0.0197002 7.53696e-20)
(0.104727 0.00586788 -2.45093e-21)
(0.0100473 0.00745741 7.78856e-21)
(-0.00456 -0.895715 8.41342e-20)
(0.541669 -0.498899 8.47144e-20)
(0.0371634 0.303135 -1.8784e-20)
(-0.0453697 0.912891 -3.6796e-22)
(0.902235 -0.311328 6.89219e-20)
(0.594612 0.827987 8.81626e-21)
(1.01341 -0.0248853 3.42104e-20)
(0.0312979 0.733411 -1.38351e-21)
(-0.0373429 0.745001 -2.04051e-20)
(0.0500149 -1.06407 -1.31705e-19)
(-0.151396 0.91052 0)
(0.368691 -0.475439 1.0939e-19)
(-0.0499209 0.846001 -1.2103e-20)
(-0.0144017 0.8365 8.06168e-22)
(0.0654006 -0.989753 4.97134e-20)
(0.0445908 0.978841 -9.75522e-21)
(1.43483 -0.635348 5.23419e-20)
(0.13506 0.0807345 0)
(0.0256171 -0.932133 -3.22663e-23)
(-0.0346095 -0.973039 -2.7195e-20)
(0.0189144 -0.92261 0)
(0.521593 0.758571 8.0796e-21)
(0.0324206 -0.931457 -3.82294e-20)
(0.733066 0.842815 0)
(0.00400025 -0.927484 0)
(0.0270363 0.742998 0)
(0.0920573 -0.970277 5.27065e-20)
(0.218021 -0.930018 2.16273e-20)
(-0.0683726 -0.954611 4.18923e-22)
(0.00420872 0.973892 0)
(0.0197456 0.00407957 5.8407e-22)
(0.711964 -0.553439 7.28411e-20)
(1.01461 0.0643258 3.63798e-20)
(1.31624 0.129772 -3.18722e-20)
(0.0151629 -0.904095 -5.95826e-22)
(-0.0534772 0.99873 0)
(-0.0823845 -0.919726 0)
(0.0877527 -0.983062 -2.974e-20)
(-0.0418507 0.869609 0)
(0.333863 -0.547634 4.12137e-20)
(-0.00416289 -0.913861 -1.06779e-20)
(0.85966 0.570121 -1.38957e-20)
(-0.0246611 0.990906 0)
(-0.0522788 -0.975117 4.09089e-20)
(0.236411 0.873172 9.57412e-21)
(-0.071934 -0.926573 1.01158e-19)
(0.0853975 -1.01603 -9.03604e-20)
(0.0541511 0.856004 0)
(0.0517493 0.00377015 1.44345e-20)
(0.0424622 -0.960983 0)
(0.208704 -0.665991 -4.15021e-20)
(0.05912 -0.89958 0)
(-0.101931 -0.911445 8.50456e-22)
(0.101444 0.883693 -9.41784e-21)
(0.0501242 -0.923552 -2.2603e-20)
(1.15321 -0.224315 5.97929e-20)
(0.103734 -0.871549 -5.33008e-20)
(0.0230887 -0.999783 4.78727e-20)
(-0.0244895 0.83537 2.69649e-20)
(1.098 -0.0832291 0)
(0.714624 -0.343811 -4.20641e-20)
(-0.0618557 0.991634 -7.88937e-21)
(0.00251385 -1.018 3.6202e-21)
(-0.0767529 0.981358 0)
(-0.0923087 -0.919998 -1.06065e-19)
(0.0170286 -0.976518 5.92705e-20)
(0.018403 0.260806 -1.09827e-22)
(1.2154 0.310397 -3.07666e-20)
(-0.0767988 -0.991117 -5.62553e-21)
(0.0229128 -0.968709 -4.35106e-20)
(0.998718 0.11544 -5.46277e-20)
(-0.0768929 0.91466 0)
(0.515457 -0.445487 0)
(0.0722355 0.670186 4.98991e-20)
(0.0191121 0.902252 -9.48129e-21)
(-0.313643 -0.66165 0)
(1.08688 0.678837 3.90034e-20)
(0.0325354 0.896987 -1.66635e-20)
(0.0591629 0.821253 2.11196e-20)
(0.0311681 0.768759 0)
(-0.0171429 1.00547 -8.42607e-21)
(-0.00153306 0.908148 3.6377e-21)
(0.570831 -0.705386 6.63235e-20)
(-0.0732156 -0.934676 4.3453e-20)
(1.26041 0.415403 0)
(0.11311 -0.937117 3.71873e-20)
(0.116442 -1.06897 0)
(0.00718536 -0.83927 0)
(0.362793 0.586472 0)
(0.035172 -0.882128 0)
(0.646031 -0.586526 -6.35053e-20)
(1.08762 0.143156 -2.874e-20)
(0.369877 0.328227 0)
(0.604856 -0.327013 -3.13274e-20)
(-0.0127 0.851293 -2.02039e-20)
(0.361047 -0.624422 -2.17389e-20)
(-0.0111038 0.864752 0)
(0.355399 0.517368 3.15522e-20)
(1.49516 0.269798 -2.18096e-20)
(-0.0441046 0.8709 9.73571e-21)
(0.0176422 0.977109 -1.29214e-20)
(-0.0147994 0.930907 5.63938e-23)
(-0.0684787 0.930516 0)
(-0.0524375 -0.901414 0)
(0.00321399 0.946829 1.13234e-20)
(0.535805 -0.455402 3.00709e-20)
(0.0621533 0.935304 -2.15758e-23)
(0.622492 -0.808733 0)
(0.0176652 -1.01732 9.18838e-20)
(0.569583 0.990596 7.03e-21)
(0.89937 0.822024 3.82052e-20)
(-0.0615698 -0.914619 1.22953e-20)
(0.0162905 -0.882207 -4.30128e-20)
(1.38655 0.53692 0)
(0.112915 -0.990966 3.56437e-20)
(0.0134562 -0.931049 1.07549e-20)
(1.00374 1.05785 2.47174e-20)
(0.248452 0.715484 2.76742e-20)
(1.1562 1.02648 1.32457e-20)
(-0.11798 -0.95653 -3.99172e-21)
(0.12113 -0.949372 -1.99715e-20)
(0.158802 0.594778 6.77025e-21)
(0.0258302 0.864062 1.40101e-21)
(0.0964398 0.988676 -9.66656e-21)
(1.0383 0.423422 0)
(0.606728 0.0864401 3.07203e-20)
(-0.0128443 0.865318 0)
(-0.110564 -0.984468 -7.85607e-20)
(0.621065 -1.02492 0)
(0.311314 0.650697 -1.49745e-20)
(1.02735 1.07854 -1.45813e-21)
(0.278587 -0.0930217 -2.52117e-20)
(0.556443 -0.420167 0)
(1.04891 0.231628 7.38373e-20)
(-0.0614867 0.868124 -1.3571e-21)
(-0.0455478 -0.978124 1.41763e-20)
(1.07932 0.130478 -4.44282e-20)
(0.0574796 -0.124801 2.58393e-20)
(0.0815901 0.527857 0)
(-0.237929 0.793289 -6.79931e-22)
(0.0527776 -0.989001 0)
(1.2856 0.505677 -1.60733e-20)
(-0.00313086 -0.949553 -1.34668e-21)
(-0.097822 -0.857011 -1.03807e-20)
(0.0221706 -0.960234 4.80745e-20)
(-0.0204437 0.91647 -1.16251e-20)
(0.748274 0.365442 1.82567e-20)
(1.18945 0.68219 -3.60375e-20)
(0.0296757 -0.0012827 0)
(0.00323668 -0.938833 0)
(0.0948222 -1.06465 -5.36064e-20)
(1.0523 0.549583 -2.66388e-20)
(0.0968018 0.986047 -7.41095e-21)
(0.0231181 -0.909786 4.02721e-20)
(-0.0303478 0.947131 0)
(1.01625 0.176045 0)
(0.0311566 -0.929164 -2.14651e-20)
(0.0518795 0.913071 0)
(1.14457 0.751262 8.12127e-22)
(0.0691106 1.01421 -1.03627e-20)
(-0.0137454 -0.975678 1.97072e-20)
(0.0341168 0.818602 0)
(1.45954 0.306013 3.84637e-20)
(-0.00461754 0.823117 -1.14714e-20)
(0.675184 0.399972 -9.26223e-21)
(1.03803 0.968252 -3.17869e-21)
(0.122809 0.996853 1.14003e-20)
(0.125896 1.01552 1.43171e-20)
(0.0170778 0.914064 2.72072e-21)
(0.0993057 -0.733016 -4.24608e-20)
(0.0632925 -0.812512 0)
(0.241707 -0.0710478 -2.64708e-20)
(0.0630206 0.777228 0)
(0.0255333 -0.961461 7.92326e-20)
(-0.0275442 0.810707 -2.11401e-20)
(0.368273 -0.470246 -3.4924e-20)
(0.167331 -1.01088 -1.24982e-19)
(0.340717 -0.422387 -3.88872e-20)
(0.120596 -0.966703 4.27507e-21)
(0.0261977 -0.95568 -4.39719e-20)
(0.0173231 -0.998227 -1.30908e-22)
(0.0215573 -0.967492 4.72525e-20)
(0.0373481 -0.959252 9.38606e-20)
(-0.00231561 0.875222 -1.11999e-20)
(-0.000476598 0.872015 -2.70171e-21)
(0.12769 -0.894292 0)
(-0.0930056 0.941586 -1.61891e-20)
(0.0515523 -0.941132 -6.00821e-20)
(0.176539 -0.147575 3.56729e-20)
(0.325704 -0.0931337 2.50281e-20)
(0.535902 -0.472466 -4.17593e-20)
(0.0681998 0.571589 -3.33476e-20)
(0.25285 0.328413 8.96221e-21)
(0.62343 -0.370984 6.07822e-20)
(0.0167816 -0.915661 5.64756e-20)
(1.15136 -0.00460462 -7.97496e-20)
(0.00349945 0.910096 -2.42693e-21)
(0.0193494 -0.995291 1.18022e-20)
(0.831394 -0.315503 4.96577e-20)
(1.23062 0.761419 0)
(0.0329606 0.990944 0)
(0.0163348 0.897481 0)
(0.0532575 0.029831 2.03508e-20)
(1.17077 0.256772 2.76241e-20)
(-0.00961894 -0.902704 0)
(-0.0819791 -0.940465 3.55176e-20)
(0.00276208 -0.947603 -5.10194e-20)
(0.472868 -0.407031 0)
(-0.109452 -0.888458 -4.33524e-20)
(0.0317573 -0.879421 -9.36702e-20)
(0.00107853 -0.934895 9.80289e-20)
(0.643582 -0.880181 -7.41295e-20)
(-0.1211 0.881994 0)
(0.116775 -1.07537 3.95262e-21)
(-0.0477963 -0.995456 -5.22383e-20)
(0.070393 0.70074 4.06225e-20)
(1.03978 0.624661 -2.09673e-20)
(0.167706 0.0905108 -1.85544e-20)
(-0.0317484 -0.835893 -7.71829e-20)
(1.09607 0.0819961 -4.03619e-20)
(-0.0494547 -0.919676 0)
(0.00481014 -0.918499 0)
(0.599647 -0.0428656 0)
(0.0648455 -0.896056 -3.98695e-20)
(0.0107872 0.891924 8.59095e-21)
(0.0414477 0.841332 -2.91838e-20)
(-0.0359189 -0.946652 0)
(-0.0193662 0.969011 -4.63883e-23)
(1.11665 0.517821 -3.45524e-20)
(0.0798725 0.923872 1.41741e-20)
(1.13716 -0.0981412 0)
(-0.0240524 -0.84607 -5.5767e-20)
(1.13198 0.432403 -1.17544e-20)
(0.0909179 0.824756 -2.23686e-20)
(0.175385 0.677978 -3.29628e-20)
(1.11758 -0.250071 0)
(-0.0407906 0.902994 0)
(-0.0605143 -0.852604 7.56537e-20)
(-0.0252822 0.883553 2.13905e-21)
(0.508365 1.18321 0)
(0.199334 0.260783 -1.06049e-20)
(-0.0825916 -0.807686 8.09683e-20)
(-0.0117186 -0.950513 -6.1225e-20)
(0.123175 1.03648 0)
(-0.068559 -0.899525 0)