/*--------------------------------*- C++ -*----------------------------------*\
  =========                 |
  \\      /  F ield         | OpenFOAM: The Open Source CFD Toolbox
   \\    /   O peration     | Website:  https://openfoam.org
    \\  /    A nd           | Version:  9
     \\/     M anipulation  |
\*---------------------------------------------------------------------------*/
FoamFile
{
    format      ascii;
    class       volScalarField;
    location    "0.3";
    object      p;
}
// * * * * * * * * * * * * * * * * * * * * * * * * * * * * * * * * * * * * * //

dimensions      [0 2 -2 0 0 0 0];

internalField   nonuniform List<scalar> 
97292
(
4.08249
0.889522
4.90908
4.46659
4.89578
0.190906
4.02512
0.290354
1.60536
3.97742
3.84292
3.78445
4.02739
3.96822
4.47665
4.91476
0.186616
1.56923
3.33642
4.9235
1.29872
0.966402
0.430509
0.154164
0.930657
1.09846
0.507096
0.168485
1.31748
0.367272
1.57721
1.35044
0.452944
3.03791
3.7891
1.91866
1.3809
1.2862
1.37196
1.94335
0.16384
0.659644
1.44396
5.19172
1.19754
3.07493
3.09757
0.994856
0.815363
0.181721
4.67624
2.51451
1.5121
4.66469
3.49663
3.62095
1.34696
1.27092
4.44522
3.41646
4.49266
3.73194
0.115926
0.85537
4.65985
3.26007
4.4871
4.15924
0.8138
1.27648
0.938429
4.62322
2.71312
4.04619
1.23873
4.3678
3.05033
0.903907
0.914544
3.81692
0.328741
3.71035
4.22523
0.663426
3.7614
3.77222
1.42895
0.540992
3.84927
1.67813
1.23671
4.5159
1.38147
1.48232
0.303418
1.12213
5.22717
3.68005
1.27566
3.71071
2.52885
1.44144
3.72701
1.44295
0.58594
1.54212
1.10076
2.84744
4.2633
1.327
3.77813
3.92147
0.82984
2.54341
5.02197
4.2408
0.322986
4.5035
0.729578
2.41856
0.254917
5.17914
0.780846
1.39932
4.59914
1.49746
1.38857
4.477
2.38795
1.49498
1.87631
0.857341
0.954078
0.21949
3.66403
5.35266
0.883849
3.39327
1.53532
1.35873
4.71888
0.661615
4.06321
2.16567
4.28197
2.25068
3.75648
1.00875
3.53516
0.273486
3.94309
4.4575
5.05063
3.71933
4.43572
1.556
3.6604
0.402327
0.377186
1.56184
4.1313
0.470976
0.893645
1.24899
1.63352
4.9502
5.18395
1.24336
4.60715
1.57649
3.67849
1.97991
3.97149
2.46518
1.00164
3.64307
2.79322
3.45534
0.680438
1.97945
4.37635
2.75358
1.23305
0.45759
4.96447
4.5284
1.22699
4.15094
4.98851
3.92777
2.57691
4.56326
0.610081
1.52744
5.07224
1.4072
0.804675
0.348143
5.16334
3.82133
3.47664
0.898452
4.92453
4.71228
4.86171
4.75887
2.43837
5.3876
3.86016
2.61964
1.09538
1.13794
0.365789
4.44588
1.58087
5.09403
0.921739
2.19802
0.56351
0.555784
1.27787
-0.0160587
0.68772
3.71685
3.20539
0.671433
5.02662
3.9404
0.150279
3.12732
0.511793
4.24039
5.00336
3.56711
3.73204
1.09492
1.4286
1.22359
1.17903
1.55746
4.19594
4.59815
4.97477
0.109938
4.77964
3.12735
3.55367
4.20191
1.5365
3.98187
4.64954
0.371172
1.50692
4.43904
4.08125
3.91254
0.231172
1.52037
2.3111
0.820434
4.60608
0.487795
0.555809
3.69518
1.34003
4.67689
4.60565
4.03286
4.79321
4.96364
0.736508
1.53849
0.753021
4.00961
4.81069
3.72902
2.81983
4.07925
0.0384536
2.53972
2.60276
1.36037
0.802873
1.52514
1.48397
0.518271
0.564853
0.606779
0.824655
0.0334338
0.0582919
3.55676
1.22183
1.50247
2.7038
4.43177
4.92127
4.41311
4.83931
1.49337
3.56065
4.59156
1.18114
3.99771
0.175556
3.5552
0.447187
1.21614
0.896387
1.44283
0.119947
1.16698
1.42609
1.27389
2.73239
1.09073
2.47103
0.936926
1.55777
0.801
3.41965
2.74289
1.27216
3.85881
5.28314
4.5292
3.99248
2.6207
2.57622
4.6846
4.37257
4.08827
4.02495
5.05648
1.35586
0.439902
0.770005
4.05559
4.63054
1.14147
0.0830051
0.218935
1.5183
0.401905
4.56445
0.427572
0.363025
0.478227
4.64607
4.53198
4.01451
5.384
1.14761
4.66809
0.0202953
1.09578
4.07915
1.05704
5.40395
5.10502
5.05359
1.01837
0.954592
4.82795
4.53484
4.45472
3.80198
4.41722
1.0935
3.86641
3.15154
0.412364
2.51857
0.461746
1.19699
3.89568
3.26938
1.29656
4.44612
3.97791
1.41825
0.227155
3.70287
2.3779
1.00148
1.35526
4.06754
4.93842
4.50918
1.29419
0.741475
1.37349
3.99082
0.364404
0.216981
4.5782
1.28123
0.271307
4.2332
4.22923
0.293857
4.44803
3.76926
1.42559
1.44961
1.10151
0.0365597
3.74184
0.170796
0.552798
1.41874
1.78147
1.76691
1.56882
4.95088
0.843853
3.26621
4.91193
4.89222
1.43313
1.3684
0.310673
3.98157
3.93618
4.55876
4.38413
1.49953
2.00788
3.84402
3.96995
1.52468
1.82666
2.02529
5.12362
5.06009
1.50085
0.495454
1.41001
0.905251
0.864322
0.337417
3.22965
3.95914
4.76852
3.69864
2.58052
1.42058
4.51734
5.24513
3.50182
1.31721
4.81687
2.82045
1.9755
3.06686
0.52113
4.51206
3.13663
0.344571
0.190104
0.165361
3.94942
0.958543
1.39704
0.937448
4.54029
4.36956
2.32264
1.39906
1.36281
0.922015
3.77715
0.243233
4.55271
4.82513
1.38022
4.55973
4.55653
0.495559
2.82923
4.46104
4.8509
3.04697
2.54122
0.198172
5.29583
0.565033
4.55823
0.156882
0.863122
2.91286
1.04611
2.64855
5.0286
0.481257
4.40444
1.52242
0.471226
4.00404
0.24823
0.95159
4.3047
4.01806
1.54451
1.29242
1.54455
1.49123
4.37645
4.1889
2.87232
0.824977
1.09908
5.07889
0.970618
1.41131
0.620183
4.94997
0.0118106
1.11649
3.79437
0.994072
4.78731
0.64542
0.519394
0.798708
5.05596
3.54056
0.0978478
1.51833
1.35552
0.569308
0.304811
0.592624
0.484808
0.426873
4.99962
1.34842
1.45926
1.43259
3.60738
4.51152
0.405034
4.05381
2.91359
4.02974
4.59546
0.626236
3.44403
1.5745
1.0086
1.43159
3.77804
4.52701
0.961696
4.82926
3.55219
1.10237
4.97479
4.73336
1.31579
3.79085
0.955256
4.38631
3.81444
0.849262
3.73609
0.314272
1.25189
0.757614
1.15313
1.25638
1.33452
0.154936
1.41339
0.81748
1.46061
1.44392
2.18617
1.62304
0.951971
4.92569
0.39442
1.20568
1.22965
1.2615
0.368224
0.398064
2.8832
4.785
1.07943
0.158622
4.79084
1.42374
2.25797
1.35565
3.11398
2.32353
3.42377
1.37042
3.7736
3.76871
5.16684
1.94761
3.40783
2.55671
0.601812
0.96689
0.413231
4.9716
3.96351
5.10632
1.40891
3.89499
3.96191
1.31018
4.13264
5.0578
3.99903
2.86822
1.1437
4.05193
4.43523
1.47568
0.961254
1.2829
0.954052
4.51547
3.97959
1.17266
3.60929
3.96831
1.44556
2.87382
0.219993
0.470231
1.44427
3.57246
5.02973
3.97302
1.3906
0.972181
4.25047
3.85822
4.45064
4.13951
0.980323
0.505536
3.40484
4.96899
1.32591
0.147532
1.3504
4.2561
3.68054
3.93078
0.319356
2.38848
0.33048
0.761054
0.840278
4.5739
1.46294
4.91994
1.29823
5.06856
3.79628
1.12128
2.99701
1.13278
3.42349
4.17739
4.49759
4.5076
2.49242
0.973003
0.701902
0.342758
0.675242
0.267591
4.30193
3.62106
0.0579581
4.08487
1.36124
1.45129
5.05001
5.00884
2.36086
1.33006
4.41347
0.549557
4.43768
1.64619
3.83435
4.19642
0.822702
0.754817
3.45699
0.76314
1.51775
3.04224
4.75582
4.71811
4.65469
1.49136
1.1084
3.12493
1.32086
1.35559
4.68655
3.71441
1.52094
-0.00396188
3.27914
1.51135
2.91048
0.548142
1.44127
4.53892
0.333401
3.85879
0.665995
0.423201
4.44212
0.771197
2.69784
1.37278
4.69361
4.64203
4.80326
1.4496
4.50754
1.45515
4.51922
1.35695
4.63315
4.00536
4.61924
0.762955
1.35256
3.52933
2.89076
2.31345
4.93663
0.5036
4.54052
5.06633
0.0929349
3.92163
4.13777
1.61598
0.742942
4.48969
1.25963
4.20829
4.61375
0.368928
1.30774
5.00305
3.90212
4.98597
4.72875
0.747375
5.03039
3.08035
4.94251
4.77235
0.911438
3.04527
3.54309
0.268203
5.07949
0.477599
4.20589
5.17805
1.49539
2.46091
5.02397
4.02558
2.85149
0.69839
3.70275
1.44083
0.487736
5.20015
2.19835
0.898513
1.04967
0.405395
0.412563
0.422903
3.68325
4.41055
2.16115
4.22486
3.83875
4.42371
1.53815
4.34956
3.57301
2.68501
1.52629
3.69507
0.689483
3.85001
0.868379
1.53413
2.11474
0.396522
0.696435
0.0212026
0.798741
4.45943
1.11197
3.7167
1.11112
3.64909
4.89869
1.1082
1.44126
4.01008
4.11303
1.81128
4.03518
4.96909
1.92717
1.45887
1.44853
4.29706
3.94728
1.52345
1.05475
1.09363
2.48454
1.52397
0.698253
4.40459
3.22384
1.46272
1.29405
1.17834
3.71455
2.57935
0.0891359
3.99869
2.76063
1.13337
1.52229
0.0260396
4.96334
2.09279
4.99083
4.92356
4.95632
0.881946
1.61193
2.16061
1.24642
3.94961
4.52361
2.33745
0.817658
4.2476
0.396491
2.85574
4.82425
0.912036
1.84859
1.10246
4.41626
1.0228
2.15867
1.00673
1.6485
1.8788
1.13416
0.901213
0.496645
4.00258
3.99288
1.24465
1.04099
4.68665
1.0992
3.89334
5.02257
3.88856
5.0398
4.44855
4.4936
4.69012
5.00701
0.844681
0.95777
5.03813
0.573982
4.77965
1.17359
1.24329
3.76663
1.50555
1.51793
3.74654
4.70712
2.80596
0.72617
3.97353
3.60124
2.14157
0.747617
0.890103
1.35173
2.49753
4.34705
4.08513
4.99256
3.66381
4.30597
4.14224
4.51639
3.48019
0.285464
4.60891
4.54771
1.41493
2.03385
1.4111
4.13217
2.84746
4.71931
4.13274
1.50451
4.11123
0.759213
1.15295
4.52197
0.593802
2.23498
0.606996
2.6604
4.04679
2.30855
1.17568
1.48201
2.8682
0.556925
4.79551
0.221226
1.13011
1.49695
4.02478
5.13704
1.1641
4.4025
2.80017
1.11172
1.22577
5.22781
1.90211
4.44467
1.5107
2.44828
2.6095
3.39673
4.98323
3.45673
0.704854
2.21207
5.12173
1.51936
0.903726
3.95652
1.52381
4.96446
1.56851
1.65168
0.962465
3.98936
2.69981
4.54453
1.42774
1.36033
3.33832
4.72528
4.10993
3.9487
3.34107
4.55047
4.60645
2.10787
1.61798
1.34345
4.05929
2.68796
4.79454
1.5211
0.587198
3.8997
3.7785
2.68067
3.87267
3.82454
0.0483344
4.01436
4.89732
3.80488
3.83262
4.11563
3.81168
4.19005
3.95965
1.28436
4.50962
4.11912
1.2928
1.12808
2.0814
0.297287
3.38963
0.066552
3.60851
0.357715
1.57866
0.442471
1.53476
4.4129
0.415675
4.6631
0.774912
3.85177
0.489803
0.560579
4.35274
3.14383
2.26346
4.98195
1.25286
1.01346
4.28904
-0.101017
4.01292
3.83878
1.04211
3.37699
1.28823
2.57528
2.77011
4.33982
4.7959
4.96471
2.98011
0.589905
2.95757
3.96634
1.51232
0.169384
3.82324
0.30661
2.90314
3.7698
2.60851
3.45122
3.71979
4.01215
5.00146
4.89427
0.516169
4.95625
1.27002
3.44258
5.10864
5.07806
3.37023
2.95088
4.99309
0.716365
1.95077
0.24889
3.467
2.77888
1.50583
0.77099
0.241717
3.85751
0.935068
2.4834
0.273498
3.53631
4.72734
4.90968
0.247122
0.676786
4.71833
1.53298
4.94824
4.14062
4.34232
1.36903
-1.80002
4.03531
2.05258
2.89172
4.12911
0.0832364
1.03003
4.04135
1.45069
1.10629
5.05927
2.89457
4.38655
4.00222
5.06277
2.19342
1.14939
1.47358
2.64549
1.46019
3.89013
0.898918
1.35146
0.0168356
3.38509
4.49251
4.68956
1.7493
2.76048
3.9647
3.98598
4.91623
3.87308
0.454338
0.453684
3.43283
0.897983
4.48327
1.06838
4.73564
3.59431
0.0807413
3.2526
4.96995
4.44266
3.2738
0.648748
0.898089
4.09194
0.468342
5.08223
0.772012
2.34599
4.72887
2.95496
1.2098
4.17871
4.55066
1.07737
4.80705
2.40453
1.34045
5.08728
0.641061
4.33211
4.73689
0.351366
3.5496
4.05897
1.49354
1.902
1.33574
0.0217092
2.34241
1.33042
1.93648
3.4234
2.14293
1.93035
1.19032
4.45199
4.71939
0.109453
4.60946
0.882263
0.842131
4.47959
0.581286
0.980751
1.39482
1.50564
2.6732
4.39158
4.5501
1.33568
4.14142
3.99197
0.997614
4.99494
1.11118
1.51254
2.19719
4.25185
0.466109
5.01046
0.72843
3.33219
4.48898
0.929713
0.728743
1.01913
0.0938897
4.51685
3.98812
1.38937
1.34304
4.64643
0.390248
0.205605
4.61082
0.939103
4.31154
4.95311
2.66648
4.73885
4.94228
1.09241
4.88642
2.69309
4.79478
0.335042
4.73745
4.74711
2.16219
1.49931
4.75587
1.34506
1.25352
3.76561
4.39238
3.77881
4.51187
4.45271
2.19399
0.559864
3.91687
1.4717
4.60834
0.71642
2.75488
3.94044
4.7136
0.820937
1.12668
1.12207
2.6037
4.15376
0.912259
4.65147
4.71866
3.31209
2.57721
3.24941
4.29683
0.398159
0.644155
4.80423
3.88218
4.80861
1.60207
3.70348
5.1087
4.46657
1.60398
4.43127
0.965795
0.625037
0.861875
4.53088
0.466589
5.0717
0.464603
0.502166
3.97011
4.24687
5.136
4.25828
1.36682
1.72665
1.21976
4.91329
5.13966
4.7826
4.0296
1.15677
1.1363
5.11589
2.80155
1.29191
4.95736
3.99531
5.05147
4.45558
4.34364
2.63219
4.01792
4.39626
0.768666
4.70592
4.6996
3.46435
0.854493
3.6867
1.61509
1.6161
3.21979
3.91753
0.767092
1.51524
3.96521
4.18912
0.696758
0.718776
4.96694
3.93944
2.19029
4.23357
4.90676
0.736564
1.23396
4.07544
1.31013
0.929162
2.54384
0.63576
0.637732
2.39274
2.16542
2.37423
0.986015
0.73076
0.997773
1.51523
1.03817
1.03966
1.26745
0.941013
0.202686
4.01142
4.52354
1.48706
1.83229
2.70802
3.86383
0.68592
0.828375
0.886783
4.20131
4.26202
4.26344
5.06961
1.36805
2.54952
0.573766
3.33952
1.3318
4.59812
2.22487
4.4472
1.52266
1.15864
1.3426
4.7095
1.39229
4.349
4.07078
4.74299
4.58435
3.33978
3.35828
3.83463
1.00583
3.96853
2.65043
1.4598
3.71103
1.2004
1.32612
0.182137
1.12329
4.012
3.54302
2.84968
0.271265
3.37942
4.83002
1.15079
1.46538
2.88053
0.758973
4.07148
4.39637
4.67292
3.13478
0.880597
4.89734
1.06958
1.18815
5.15135
3.52323
2.36759
5.01803
0.414794
0.795466
3.42809
1.49044
0.587243
0.364885
1.42391
2.43308
1.21739
1.07185
0.962626
1.14909
1.02132
0.781443
0.480457
0.247605
0.801412
1.45635
0.704944
1.94413
0.325161
1.49283
0.608354
3.8926
4.47427
0.242727
0.372853
2.84486
4.47456
4.60663
4.15333
4.1294
0.469398
3.18126
3.98597
3.99494
3.91277
1.22726
1.42563
2.48534
1.47627
1.23223
4.12565
1.47197
0.69218
3.78296
0.456093
3.68702
3.53119
4.20507
0.747244
0.76451
2.63778
1.50594
0.782813
1.27037
0.022478
4.49926
1.30462
2.5595
3.88765
1.44125
3.81669
3.18611
3.93582
1.84818
4.37605
1.31893
2.40416
3.69257
3.96137
3.80492
3.71102
4.6937
4.73019
5.05864
4.23155
0.89756
4.34441
5.10469
4.5512
1.51747
4.5615
3.54294
1.36228
4.09574
1.48244
4.89386
2.88043
1.17719
3.42588
0.587935
4.4353
3.75664
3.91328
4.79898
3.07768
1.52249
3.07906
3.39346
0.255413
3.96731
3.6368
4.03669
5.02628
0.812082
5.13216
3.87848
0.703523
3.42261
0.105853
0.794436
4.95172
1.036
1.16712
0.937297
0.903635
1.14447
2.62323
3.62977
0.0577751
3.15815
3.5978
3.96678
0.51919
0.880958
5.20851
2.08568
5.10209
5.0609
2.08215
2.50109
5.09664
3.48453
1.02633
4.51037
4.62515
1.1765
4.45067
1.40976
0.218416
0.86279
1.90933
0.770794
0.951124
0.850996
0.791922
1.39044
5.12154
0.146635
4.60682
1.01504
1.2072
0.252142
0.889155
-0.0172338
4.34706
4.74448
2.30497
0.802916
1.12838
3.59407
4.46969
3.86647
4.1873
0.470823
4.87245
4.82553
3.66211
1.18845
1.49392
4.01136
3.55061
3.60074
4.56827
2.74278
1.03212
1.35307
2.68757
1.30263
0.542708
0.242232
1.40946
4.08456
1.01878
4.03822
0.523665
3.04122
0.498846
4.07868
0.947348
1.30542
1.10365
2.60601
2.58989
4.5702
2.87407
0.43003
4.51132
3.91583
0.367997
1.5496
4.78247
3.74322
0.798699
3.37018
1.54359
2.15269
4.49404
3.71268
2.66162
4.45926
1.66801
0.763728
0.159774
5.0856
1.23361
1.07462
1.59633
2.50191
3.9551
0.573481
4.4936
0.957793
0.965544
4.81239
0.59964
0.789502
4.18753
0.507574
4.31968
3.42515
4.87328
2.35778
4.01512
3.57355
3.93691
3.48134
2.66039
1.12389
2.65382
3.41011
4.66991
3.42675
2.68509
5.05308
4.00751
0.301787
1.51381
4.19166
0.00354623
3.09432
1.3128
4.35065
3.40176
4.10586
3.83997
0.901351
3.66021
3.13914
4.00785
4.91742
4.42215
0.660646
4.00584
4.03014
0.480991
0.291357
3.96896
3.92819
1.47365
4.85889
4.45735
3.70993
0.586438
1.49178
4.48424
4.0352
0.745393
4.30363
3.5155
0.419108
0.800461
4.25011
1.51678
3.96217
1.20237
1.5334
2.97288
4.63352
2.43546
1.18221
1.14998
4.99084
0.406317
1.08853
4.59887
1.21189
1.95545
4.00549
2.38225
3.98834
4.17367
1.47162
0.609932
0.167365
0.897844
2.41761
1.98783
4.80259
0.5353
0.573369
0.388971
1.3484
1.37672
1.49975
0.043644
1.46931
1.56233
0.995133
1.46237
1.03403
0.772541
0.764583
1.33925
4.00041
1.14115
3.92506
5.15745
1.34562
2.43093
1.40391
3.3332
3.64343
5.16151
0.793348
1.24425
3.57101
0.70237
4.6458
4.57905
3.01939
4.53834
3.52989
3.94157
1.96427
3.7045
2.27097
0.713517
4.49862
1.01559
1.41592
4.1189
4.00867
2.01357
4.98398
3.57905
4.90414
1.34664
3.95965
0.0482307
1.51724
4.9405
5.01438
1.19656
1.48758
2.83341
4.09079
1.18619
3.53502
1.54051
2.85219
1.48459
3.21429
2.28695
0.722818
0.844615
4.01825
1.48563
3.26447
4.26919
2.45423
0.457387
1.3102
1.95625
0.374746
3.98473
0.832403
0.574508
3.75563
3.71371
1.49398
4.41035
0.75294
2.18936
3.70729
2.07647
2.6314
1.55824
3.92784
1.54066
0.682924
2.92887
0.485214
1.36886
1.08911
0.722318
3.86561
0.604215
0.768864
1.3434
4.61146
2.00001
1.07567
2.28376
2.62146
0.644183
1.22209
1.03894
4.67387
4.09047
1.94106
0.794561
1.52175
0.544324
4.97307
5.16483
1.01177
1.5234
0.269862
0.751302
3.87447
4.55905
4.09011
1.01932
3.91984
4.53546
0.788183
4.44588
1.40381
1.99289
4.74
1.88882
0.932491
0.90978
4.0312
0.743585
2.34202
1.14789
2.04635
3.94745
3.52426
4.14319
4.91694
3.68517
3.16441
1.04872
4.41496
0.0505076
1.53138
2.60836
5.11232
3.78186
5.12854
4.57258
3.56515
3.3932
2.75247
1.63787
0.77808
1.02969
1.33366
4.262
3.87846
0.569895
5.09319
1.31411
0.762129
1.34431
3.15181
2.7605
5.24043
4.74593
0.105438
0.867549
4.5578
0.453392
2.38946
0.504366
0.604735
3.59791
0.753836
4.38577
0.630523
2.91609
0.61006
3.82485
1.08891
0.719435
3.53719
1.24247
1.86471
4.99221
4.0675
4.16169
3.94204
1.55095
4.84997
5.09688
0.519229
2.38916
0.57453
3.56846
2.08583
3.91797
2.09974
0.374964
0.68041
0.484868
1.14083
4.49929
2.21849
4.82824
1.35295
1.34873
0.990034
3.57416
3.96663
3.94101
0.816979
0.679444
1.38377
1.12745
0.868178
1.45874
4.67808
4.60738
4.35672
0.563912
2.77608
1.3624
2.48132
1.04257
0.833297
3.99472
4.53888
2.45736
1.52727
1.35915
1.5207
4.56258
0.35518
0.535981
2.71171
4.69997
1.57256
2.20738
5.08806
1.06444
1.54058
4.34049
0.889598
2.17011
0.875552
3.7904
2.41255
0.703797
1.18803
3.96223
5.04709
1.45291
4.58589
4.18752
0.557504
1.02038
1.41848
0.442891
0.425785
4.15466
5.0725
2.46946
0.139875
1.00473
4.86882
4.57461
0.258976
4.56146
1.33169
2.77163
4.99942
4.64649
0.229226
2.87099
3.55897
1.28926
0.634616
3.66632
4.19567
0.882754
1.46767
0.386116
4.41322
0.436876
1.34507
1.23119
0.703939
0.0153123
1.45703
4.8904
3.8902
0.914777
5.17999
3.13611
3.9951
0.837999
2.62473
3.82817
1.10239
3.71843
4.0597
1.06813
2.17858
3.95253
1.59859
4.82862
2.63453
-0.0119972
1.4562
3.48473
5.02256
1.2248
4.5706
2.52523
2.60007
3.86277
4.61271
5.01219
2.06159
2.15563
1.53549
3.82864
0.967998
0.98006
1.01734
3.92988
1.09227
0.716697
4.43074
1.17851
4.74697
5.16964
2.93741
1.2293
4.18442
3.48389
4.02568
2.33319
1.27736
0.735693
1.26551
4.00483
4.01047
4.13406
4.83777
4.42815
2.45632
4.26682
0.438293
4.71738
1.09665
3.83258
4.71875
3.86329
4.8467
4.70387
4.65523
5.34894
0.656824
2.40074
2.10585
0.382843
5.01661
4.43914
3.42949
0.503469
2.46141
2.00952
4.21149
4.10035
1.2134
3.07933
4.25047
4.39721
4.8625
0.785273
4.3783
3.80014
0.826637
3.92331
4.91691
4.96177
4.16125
3.96903
4.17608
3.98902
4.28714
3.42074
0.127164
0.479948
4.83182
1.53161
0.0713712
4.68426
1.04302
0.0250185
0.783924
3.75317
3.92708
1.30809
0.95874
0.229582
3.49867
3.42066
0.943433
5.08309
0.911714
3.98095
3.85781
2.2606
0.423636
3.43205
4.84151
5.08997
3.91508
1.5206
1.35573
2.16054
0.577836
1.08653
5.12224
1.15564
4.29761
3.34548
4.30819
1.06967
3.94851
5.08904
4.51495
0.929087
3.64074
3.95294
5.01568
1.04945
0.3088
1.54516
3.96042
0.616325
4.49272
2.72642
1.46601
2.47218
0.483113
3.96121
2.33006
0.883594
3.94123
0.77434
3.9874
3.32173
3.4196
4.48685
3.83361
0.228981
4.94558
3.99367
1.04932
4.53963
4.46639
3.98805
5.0905
3.59282
0.845251
3.82111
1.1672
2.60989
0.961264
0.933538
1.58917
0.422245
4.49623
0.471262
0.476891
0.297776
2.40095
0.857834
3.36624
4.01249
4.81469
1.61447
5.02087
2.43019
1.34924
1.12424
4.9168
0.717259
3.75529
4.00798
2.02875
0.662663
1.53121
0.858966
5.09109
3.96595
1.09244
0.829209
0.383578
0.410923
3.88336
1.49746
1.07691
1.31444
4.34777
2.42351
1.48613
1.14028
4.42495
4.65492
1.39439
3.69812
0.904346
0.452906
0.474295
1.12956
1.61761
3.70593
1.20706
1.44248
0.316561
1.425
2.15322
3.61136
4.18474
2.06359
4.012
4.46087
3.99751
3.62477
0.407013
0.954241
3.53374
3.73052
3.23388
0.929518
4.44498
1.79103
4.26989
0.0265005
4.0237
4.02691
0.594155
1.37369
1.11876
3.9232
0.0139709
4.43407
4.83876
5.06318
1.6791
4.26338
2.54129
2.37979
0.874665
1.23243
0.795108
0.751243
4.32888
3.38998
0.697636
0.584829
0.610615
0.748282
4.6676
4.43362
4.63041
1.47822
3.96231
1.40657
4.22219
1.20082
1.12548
1.13611
4.56585
2.19271
1.49105
1.14313
0.910078
4.61729
4.35447
3.15603
1.30313
4.81695
5.09291
3.66414
4.10853
0.344336
2.25178
5.01891
2.39946
3.97979
4.11603
3.77828
3.26986
0.94
0.765341
1.3566
0.770868
0.0528542
0.580506
1.36087
5.0828
3.93159
0.921176
1.25657
3.92472
0.832122
1.4778
1.03015
3.72487
1.36191
2.43736
2.55979
1.06946
4.05875
3.9818
4.77176
0.975042
3.61012
4.1928
0.170944
1.51979
0.656717
3.58453
4.07105
0.654563
4.13099
1.32278
3.76141
3.61835
0.945563
2.95157
0.922494
0.696082
1.35221
5.00087
0.763954
0.261772
4.65835
0.85359
0.803658
4.83131
4.43819
0.918521
5.00574
4.60371
4.2747
1.53708
4.11246
4.71078
3.22776
0.932293
4.25451
0.8272
0.577051
1.15813
1.11373
0.61657
0.77859
1.35689
3.85528
1.09224
2.3151
1.32194
4.09327
4.06543
0.478156
0.963683
0.793029
4.80789
4.40753
4.02375
3.64327
2.40807
3.59406
4.21372
0.919933
4.4962
3.86774
1.41388
3.77016
3.84419
3.84084
3.86046
3.9457
3.94972
4.1881
4.68368
3.96356
2.56919
4.25599
2.82106
2.6575
4.77807
1.79639
4.73242
4.88721
1.86109
4.95916
3.80064
0.66039
1.06339
0.457677
3.08656
4.0987
1.41929
3.79327
0.921589
0.917309
3.27526
3.94202
4.02683
3.98108
1.21854
3.97405
4.09377
1.0428
0.100518
0.196748
1.72875
3.95619
1.05675
0.259623
3.95215
0.785629
1.75736
0.741951
1.11809
3.97031
1.44406
3.96585
4.28842
4.02469
1.2455
2.96051
4.03997
4.37107
0.867232
4.82514
0.896998
0.981473
1.1016
4.31859
1.4125
4.02776
3.13277
3.56895
0.324836
1.51249
4.51869
0.143954
3.50975
0.618365
0.412375
3.91388
2.11348
4.57618
4.52011
2.87945
1.10899
1.23551
0.825752
2.54596
2.49572
1.09184
4.98825
4.58724
1.33845
4.03117
1.37024
4.66761
5.04386
1.22848
2.98534
3.0036
0.325769
2.83352
3.94976
0.977712
2.39871
4.32389
1.5505
3.96108
3.95161
1.55373
1.33697
0.566561
3.85073
2.17243
2.47083
3.83572
0.862963
3.53696
5.15832
4.02141
0.639154
1.32143
0.65844
0.314325
4.66111
0.599182
4.07039
1.55619
0.271634
0.237719
0.299516
4.63431
1.07773
2.8265
4.79189
3.36627
0.289122
4.78179
1.33209
4.88435
1.51614
3.79398
0.903859
3.2565
1.92193
4.90126
1.11289
1.57838
3.08449
3.56319
0.375724
0.652019
0.370425
3.9892
4.48328
0.982809
4.08915
0.0633756
1.48765
3.10669
0.646122
5.00602
1.58449
4.0807
3.93144
4.00306
1.14567
1.78789
3.04235
3.83421
1.08649
0.17489
3.00265
5.1596
2.96959
3.71305
4.02159
1.20929
0.524161
1.49633
0.912046
2.37131
4.58627
3.86282
4.13013
4.02495
4.13997
3.28864
0.977389
2.18615
3.58398
3.70876
4.69561
1.2838
4.49592
1.24031
3.36509
2.67408
1.79563
1.4387
2.93612
4.89213
3.62055
3.97824
1.28548
1.6875
2.50121
0.412518
1.39032
3.35914
3.36859
1.69579
3.03753
0.637687
2.35056
3.73179
2.55489
3.80941
3.79948
3.72262
1.06306
2.35025
3.8341
2.38402
4.61292
4.91847
1.21286
1.47103
4.01524
3.48321
0.802996
0.817314
0.601824
1.02156
1.53072
0.622201
3.72169
0.809882
0.814841
3.87004
2.45875
1.48054
0.895935
0.872424
4.19447
4.63323
2.27877
1.48957
1.55183
1.07399
0.298509
4.19271
2.69278
1.06131
1.06676
2.70785
1.24988
3.5034
4.43262
1.33172
0.848826
4.42932
1.50811
1.07961
1.01967
1.00831
1.39976
2.20474
4.92533
0.380849
3.5413
1.27563
3.42054
1.83397
1.04598
1.25931
4.99718
1.28705
1.41525
1.3024
0.030018
3.81223
1.1048
3.82075
0.911688
1.57762
0.84251
1.2679
1.51606
4.71345
0.582394
1.4972
0.588937
0.091648
2.84595
0.912826
4.06164
0.30903
1.04912
1.04526
1.18727
0.0381174
4.48343
0.211852
1.23653
1.19213
5.00777
3.85553
4.88172
4.0465
4.24125
3.31706
0.239573
3.35158
4.02789
3.98041
4.92554
4.02206
0.91787
1.3638
2.97191
3.26738
3.61079
4.40057
0.670053
5.00649
1.08692
1.42086
1.36616
3.60466
2.29867
0.918979
1.56087
4.08875
3.30183
4.89714
0.144944
4.58376
4.40402
1.33911
5.16744
1.00869
0.657121
4.43317
4.67489
1.31722
0.691124
3.83472
0.459298
0.315318
1.07413
1.41696
1.24909
0.591889
1.57992
4.25065
3.92371
-0.00713562
4.27285
1.04751
2.82044
3.30566
0.728461
0.727536
3.46974
3.9261
1.20269
0.484813
4.37518
4.22658
4.96316
0.691948
0.411934
0.87437
0.278288
1.51313
0.648448
4.12355
1.04229
4.91082
4.03055
3.3273
4.42828
0.245486
1.55962
3.19016
0.344736
0.00912543
1.51085
1.36947
1.34511
2.3608
4.00436
3.99778
3.61555
1.50211
0.847237
3.85723
1.18003
0.947908
3.14054
0.92307
4.00707
3.28079
1.2116
0.598639
0.566916
2.29843
2.98332
0.680764
4.06684
4.46717
3.95063
3.74916
3.94365
3.82458
1.95695
2.24071
4.26588
1.34156
0.220879
2.84304
4.00506
1.31059
4.47457
3.98741
3.94641
4.56209
4.25621
0.547495
1.40847
1.30173
0.373088
0.646369
4.98651
3.96251
1.4526
3.98899
4.79919
0.830987
1.51467
5.03734
0.622262
1.36273
3.57117
2.31252
1.01574
3.87406
0.391568
3.51598
3.5217
3.82018
3.00243
4.10977
1.35668
5.03549
4.10848
4.09946
2.96008
0.555319
1.38303
0.49703
5.05432
4.99059
1.31739
0.55778
5.30807
5.01837
4.18528
5.08951
1.06853
3.59644
1.43158
2.67286
3.98381
4.56599
3.90487
2.21413
1.31436
1.20371
4.7587
1.36284
0.124738
4.7234
1.73044
0.524352
1.39043
1.25744
0.913045
3.94575
0.406254
4.06329
0.270561
2.40664
4.59245
2.88947
0.79767
3.99708
4.52657
0.328269
3.98172
1.54573
3.32348
1.28177
1.38753
0.504584
4.33313
1.48859
0.393391
4.77272
1.46763
0.301186
1.03895
4.68083
3.56757
1.45266
0.219348
4.89662
4.79205
4.81718
1.38013
4.84277
2.26152
4.57748
0.983382
1.23975
1.3757
4.07236
0.107382
1.38761
0.419297
3.19607
4.01039
1.49367
4.84059
3.77347
0.765983
4.48574
0.270237
4.58002
1.38869
4.90874
4.07529
1.67615
1.11624
0.584939
1.12166
1.42191
3.89508
0.933767
3.92858
4.23794
1.51839
5.08787
5.00531
3.91828
1.96435
3.92559
0.00722662
3.82644
0.271205
4.7737
0.633118
0.629664
4.11123
0.598282
1.60338
4.06029
4.04619
4.26043
3.46695
4.45542
1.41866
2.22878
4.49742
3.43775
3.56366
4.49735
4.66413
4.24135
2.75328
0.105967
0.270065
2.62139
5.14115
3.54859
0.257899
3.60509
4.32532
1.38771
2.76073
0.94863
0.320412
1.20656
4.40019
0.532538
0.863297
2.40137
0.787643
0.910039
3.96501
3.75751
2.30575
0.609246
4.39614
0.982535
3.98909
4.60211
0.721281
0.410979
4.64313
0.694504
0.650835
3.68758
2.46334
3.74152
3.53185
3.69918
0.38297
4.56943
1.02
3.98251
2.31468
3.60809
3.60334
1.46967
4.41234
0.0740271
4.36901
2.28732
0.830608
4.05593
3.90859
4.55011
3.4008
4.74927
3.16185
4.29819
1.44635
4.56203
0.890106
0.747426
4.19846
3.03908
3.64325
3.44781
1.04495
3.69252
0.239267
4.83321
1.40739
1.00177
1.52582
0.999363
0.943506
0.807844
0.728394
4.72588
0.950074
1.85902
3.58628
1.32551
4.5131
0.67161
3.17732
5.07741
1.43731
4.58182
4.68193
1.41439
4.45103
2.09274
0.0658309
3.19459
2.09016
3.46513
0.601284
5.15783
1.24258
3.05382
0.450536
0.405345
1.21817
1.52754
3.20415
1.75491
3.16628
1.27648
1.22128
4.26627
4.68432
4.43746
4.66028
0.310853
2.34888
0.900448
0.902994
4.00736
3.60693
1.09006
0.759513
5.09878
2.81744
4.15794
0.530784
4.97442
4.10886
4.57851
1.07171
4.66946
4.49437
1.5033
2.94344
2.6214
2.85034
3.35667
3.701
1.17705
0.861889
1.31763
0.211539
4.27605
3.54379
1.16646
4.16399
3.94155
3.29912
3.19055
4.25285
1.5097
0.317749
1.04362
4.12906
4.48813
3.68996
1.11786
4.46962
1.62186
4.39472
3.98141
0.818861
4.91997
0.318515
4.07682
0.729914
5.04231
0.234499
1.52635
4.63446
4.96662
3.4748
4.01585
4.39889
1.34269
4.81472
4.72339
4.43301
1.46184
3.99443
0.899742
0.800897
0.224712
1.45276
0.708644
4.55763
0.63617
3.74479
4.56517
2.9953
1.16618
3.76
3.06146
3.81942
4.78557
2.42423
4.27708
4.01543
1.45513
4.38374
4.02675
1.3165
4.64002
0.700866
1.4705
3.99844
4.11166
3.76923
1.48444
1.47814
1.49503
-0.00507343
4.07363
4.71417
0.883814
2.80208
4.12793
4.867
4.06012
0.0286314
0.837192
1.36941
3.83699
0.392592
1.45147
1.48297
3.76381
4.05806
3.74608
3.78399
1.04617
1.52686
1.50384
3.70151
1.49716
3.67753
3.02223
0.524608
5.08891
0.143101
4.37065
1.51189
2.70395
3.46474
1.53726
1.56634
4.44053
1.402
2.99264
4.04587
0.930956
0.904255
1.2644
0.835504
0.505665
3.57841
0.275677
1.21859
0.285579
3.97983
1.51989
3.98594
4.13769
0.512339
2.71867
3.98869
1.50691
0.296843
0.484061
4.8018
0.919831
4.72945
0.952681
0.620308
2.78524
0.593275
0.256083
4.45444
4.10933
1.25316
3.94671
4.77317
1.52822
5.06163
4.81762
4.70201
3.36974
4.35823
4.74373
3.4389
0.801463
3.38784
2.33221
0.785668
4.17584
0.868513
0.25367
4.20555
4.60782
1.50853
4.75799
0.457811
0.920067
3.71259
0.280239
0.468297
4.44225
1.25324
4.64277
3.92756
1.56103
3.91001
5.02797
2.78707
4.92947
1.43681
0.921443
0.88441
4.96343
2.63492
2.1095
0.985577
4.02882
0.288671
0.645013
3.72689
0.714732
1.50581
3.9466
0.296767
3.7208
5.03713
3.80867
4.59639
0.832415
1.60194
4.59391
3.82631
2.97251
0.534805
1.43389
4.80266
1.14952
4.2399
1.32634
3.25288
1.72527
4.19718
0.877011
1.03591
4.06143
3.38936
2.17405
2.11667
4.72623
0.0266991
3.47536
2.3428
0.932995
4.9866
1.56529
4.73707
2.99423
0.759171
0.774397
0.160425
0.897124
1.34583
3.94706
0.76857
3.95895
0.782218
3.81889
0.13415
0.0904005
1.53728
4.58429
0.596829
3.80087
1.36968
3.98524
1.33018
2.19332
0.241792
3.79975
2.06145
3.79822
4.89829
0.965748
3.97543
3.96774
1.55673
4.40559
4.4161
4.44248
4.77546
3.89861
1.48165
3.53722
0.583102
0.220096
0.255203
1.50725
1.55896
0.350231
5.12543
1.35176
0.743377
0.360325
3.95412
3.8737
3.49325
4.71087
5.37632
2.25646
4.69691
0.398591
0.759907
1.66613
5.00814
3.85817
5.03164
1.67065
1.30769
4.22329
3.50059
1.58483
4.24108
1.13864
2.86434
4.013
1.16082
0.70307
4.00713
3.9277
3.48474
1.07359
1.05391
0.809344
3.97528
0.0693594
2.72596
0.698548
4.18826
0.681941
3.84408
4.79101
3.73228
4.00022
1.11495
3.68534
1.36485
0.223463
4.55927
0.370636
0.664382
1.11024
3.97841
5.11889
3.17234
2.38335
1.66488
0.636155
2.42839
1.50342
3.90746
2.79932
3.23945
4.8128
4.89566
1.23521
0.59799
4.93475
1.51547
4.474
4.99479
3.00928
0.272322
0.486193
0.388713
0.747578
0.24347
0.47677
0.587806
4.10648
3.65478
0.619752
3.49042
0.197935
4.62652
3.44962
4.02462
3.36243
0.481406
4.97565
0.658743
3.07229
3.32843
3.85493
0.218395
2.57713
4.20961
4.94622
0.848631
4.33806
0.847703
0.108104
4.93132
4.37277
4.9688
2.27339
3.40574
3.66303
1.44504
0.601288
0.747446
4.84639
0.620071
3.91667
1.5563
0.919896
4.02362
4.42879
4.04073
4.2787
4.5692
1.2667
1.00301
0.731698
3.65114
3.66879
3.68472
3.91494
4.20033
4.21988
0.436771
3.69211
4.54105
4.27445
4.26143
4.3922
2.1839
4.41589
0.459371
4.96312
0.450753
1.23429
2.62765
2.21744
0.88985
0.995096
1.06277
1.8978
1.52658
4.95928
4.90979
4.08742
4.82097
0.73952
4.00788
1.96919
0.511405
1.57098
4.30738
5.19675
4.79939
3.94767
0.528536
0.887524
3.15523
4.85921
1.00761
1.55545
0.889086
4.56861
5.0107
4.02646
0.588056
0.0147844
0.612319
1.43079
3.83401
5.02127
0.8962
1.44966
0.0442718
0.0519897
0.913557
3.96465
1.35404
4.19901
1.19632
3.08338
1.40066
4.18631
1.32536
5.01393
1.29588
0.394249
4.60681
3.87966
4.57963
0.0100801
1.8052
3.75405
2.46475
0.399557
4.79203
0.388782
1.43876
0.0216109
0.717362
1.4976
1.48491
0.459882
4.02037
5.22767
0.88072
3.82807
1.38674