/*--------------------------------*- C++ -*----------------------------------*\
  =========                 |
  \\      /  F ield         | OpenFOAM: The Open Source CFD Toolbox
   \\    /   O peration     | Website:  https://openfoam.org
    \\  /    A nd           | Version:  9
     \\/     M anipulation  |
\*---------------------------------------------------------------------------*/
FoamFile
{
    format      ascii;
    class       surfaceScalarField;
    location    "0.3";
    object      phi;
}
// * * * * * * * * * * * * * * * * * * * * * * * * * * * * * * * * * * * * * //

dimensions      [0 3 -1 0 0 0 0];

internalField   nonuniform List<scalar> 
143364
(
-9.93185
1.69216
8.2397
-4.24552
8.71748
-4.47196
9.85427
0.836423
-10.6907
-13.2891
9.02393
4.26518
-0.272068
10.1263
2.93799
-8.89834
5.96036
8.10124
0.700337
-8.80158
-0.815501
-6.73112
7.54662
6.27395
-10.9975
4.7236
10.1629
-2.06167
8.64691
-8.32924
-0.31767
1.90264
6.74427
-0.19912
8.37109
-8.17197
-10.3593
5.88092
4.47841
-9.93582
5.78343
4.15239
10.3065
-2.7341
-7.57243
2.133
8.15469
-10.2877
6.79174
-10.3595
3.56775
-0.553503
-9.08446
9.63796
0.274812
10.0317
0.230314
6.16581
-6.39612
-0.655208
8.48816
-7.83295
5.81921
-9.28214
3.46293
9.73081
-6.79282
-8.4263
7.77109
-2.36995
9.06853
-6.69859
-11.1712
7.13002
4.04116
-9.61353
0.715182
-5.8306
6.06092
-5.41729
11.2365
-2.63532
8.90926
7.96492
-8.95574
0.990815
-6.80279
-4.3684
-10.7503
11.5624
-0.812113
-8.8778
10.7986
-1.9208
-8.33278
-9.43816
17.7709
10.8655
-9.83705
-1.02843
-17.3157
14.6685
2.64719
9.6832
-1.71828
7.61191
-15.9447
8.06926
-11.6118
3.54254
-0.0809207
-7.53104
7.61196
-6.46781
9.53247
-3.06466
4.5572
-10.6091
6.05185
5.14996
5.58299
-10.733
-13.3945
4.89465
8.49989
-10.7739
-2.6206
-4.82692
8.72584
-3.89892
11.8605
-6.67155
-5.189
3.77917
4.71931
-8.49848
9.06933
0.163174
-9.23251
6.90745
-10.6772
3.76975
-1.60646
-2.29912
3.90559
11.3093
-2.23996
-12.5591
8.53219
4.02689
-2.74307
8.53957
-5.7965
-12.6095
-4.70618
10.0601
-1.83498
-8.22516
-3.11855
9.84883
-6.73029
-1.30247
-6.02652
7.32898
-11.2895
8.56568
2.72383
4.71334
-7.45642
9.73952
4.1332
7.72735
1.93042
8.04552
-9.97594
-13.2204
-1.46878
14.6891
-11.7144
7.89569
3.81868
11.3888
-8.12536
-3.26348
12.6651
-7.77145
-4.89366
0.359371
-0.786745
0.427374
2.05858
7.36965
-9.42824
-12.0767
8.16226
3.91442
-3.53694
12.5484
-9.01142
-3.55504
-6.80429
-0.384155
0.229074
0.155081
6.31625
-11.8656
5.54936
11.4803
-11.4803
-9.2734
5.02788
-7.08604
-2.18736
-4.24727
-4.19525
8.44252
12.3208
-8.03395
-4.2868
-4.37765
-5.57872
9.95638
-6.05823
-5.21858
11.2768
3.00976
-8.97665
5.96689
-0.912463
-7.96534
-11.6204
7.24271
0.245595
-1.83588
1.59029
-7.79223
0.66545
7.12678
4.88831
-1.11082
-3.77749
-13.1465
11.5433
1.60319
-0.189276
-0.194879
1.72712
7.78509
-9.51221
-1.76911
-0.746522
2.51563
-2.74362
0.0382304
2.70539
-7.79259
6.97709
-1.70184
8.42519
-6.72335
-9.88914
11.6214
-1.73227
-15.3749
10.0462
5.32867
9.37121
0.688924
9.19472
-6.31529
-2.87943
-5.44082
12.3483
-9.29409
2.82628
-2.16417
-6.05579
8.21996
1.65728
-1.41168
-5.08703
8.27901
-3.19198
3.55771
4.14581
-7.70352
-3.42278
-3.22723
6.65001
-1.34552
-7.01748
8.363
1.5227
-9.57062
8.04792
-3.44381
13.4401
-9.99624
6.1937
-1.30538
8.31595
-8.79634
0.480385
6.55203
1.25041
-7.80245
9.11183
0.742069
-9.8539
-9.22254
11.4813
-2.25873
2.80469
-8.86292
-6.05181
10.512
-4.46023
6.08867
2.78955
-8.87822
-4.8649
8.83384
-3.96894
3.81221
-9.91855
6.10634
6.73827
5.58249
4.8145
-10.1363
5.32182
6.01758
6.64753
-0.575777
-0.956762
1.53254
9.06507
-10.1601
1.09499
6.63282
-0.522493
-6.11033
-1.51654
0.940759
9.15716
0.69568
-9.85284
-15.9863
14.3855
1.60084
-1.85729
8.49011
-15.0846
-2.25671
17.3413
-1.24217
-9.53392
10.7761
-10.5696
0.72444
9.84516
11.2954
-7.36651
-3.92889
9.66241
-6.93308
-2.72933
-0.292132
-7.60177
7.8939
5.53937
2.55424
-8.09361
-8.46853
7.16606
4.4032
-4.71106
0.307851
-2.67802
0.908914
-11.5676
7.78188
3.78574
12.1977
-6.39655
-5.80111
-12.5101
8.03838
4.47168
-14.5496
14.9329
-0.383327
0.294839
-9.23307
8.93823
-10.1308
-4.41883
-10.1012
10.0895
0.0117462
-10.3745
0.592135
9.78241
-6.61653
8.91361
-2.29708
-8.18032
-0.643617
8.82394
-3.09158
-4.35337
7.44496
-4.12313
-7.59124
-5.51381
10.05
-4.53621
-5.54412
-4.55713
-6.79675
-3.13906
3.43103
7.74664
-11.1777
-10.7453
-4.6296
-10.1765
9.91624
0.260254
-0.630927
-9.54557
8.43951
-4.88179
-7.44501
-2.08327
9.52827
-7.72125
7.72125
7.93453
-2.39516
-0.494764
0.295329
0.199435
-6.62667
10.0577
-6.55791
10.5496
-3.99165
-4.80434
9.69722
-4.89288
-0.26569
8.42746
-11.2612
2.8337
-8.44848
3.09183
5.35666
7.63874
1.15656
-8.7953
10.1253
4.18204
-14.3074
-10.6501
4.3525
6.29756
-8.64706
12.4593
-2.84859
-5.13788
7.98647
-1.39315
9.03189
16.4909
-10.8867
-5.60418
-6.25545
10.4728
-4.21738
-0.23011
3.3879
-3.15779
-5.84934
15.9747
6.08595
-11.9487
5.86272
-14.2148
3.16657
11.0482
0.304213
0.371546
-0.67576
0.00829555
8.58656
-8.59485
8.07826
1.23067
-9.30893
-1.1006
-7.93927
9.03987
-0.307525
0.611739
-9.79167
-2.71839
6.59403
-9.32814
-8.12618
5.03459
10.7656
3.13893
-13.9045
8.08635
-6.35923
9.09902
-6.08927
-7.42505
-1.02343
-11.3321
6.97822
4.35384
13.1632
4.52976
-17.693
-5.34327
8.6941
-3.35083
3.18301
-9.23482
4.2676
-9.07194
-7.94457
6.19643
1.74814
-8.16373
1.90829
3.28935
-3.51946
-9.05549
0.0315872
9.0239
3.82684
4.242
-8.06884
-11.2933
2.23782
-4.92387
8.75071
-3.39645
-7.2294
10.6258
9.38052
0.249542
6.7346
-5.79962
-0.934982
-12.0435
-0.183969
-8.22277
8.40674
-12.3374
3.10318
9.2342
-0.00263988
6.74091
8.24152
0.915639
-14.4025
10.4967
3.90576
2.66298
-8.17679
-6.60109
-4.40664
11.0077
-14.9466
14.9466
-6.39191
11.0216
-4.6297
2.84295
-9.23486
-0.245085
0.604456
10.9805
-6.26115
3.89568
8.30198
-5.85568
10.3355
-4.47986
15.3647
-8.62571
-6.73896
6.68851
0.990792
-7.6793
-6.96582
-4.36624
-9.78754
-2.81554
12.6031
-9.26035
2.0865
7.17385
7.56558
7.79909
-7.76347
2.67643
6.49015
-6.68927
8.94704
-0.868783
8.40428
-8.16652
-0.237761
5.17912
4.0156
7.89111
-11.484
3.5929
13.8905
-7.72979
-6.16069
-9.19611
9.7267
-0.530585
1.91128
-11.1074
15.2817
-14.2993
-0.982389
-9.39196
2.92133
6.47063
-4.40034
-7.67635
-10.6421
2.84676
7.7953
4.16562
6.81483
1.89659
-10.8859
8.98928
-13.9208
12.913
1.0078
-9.73905
9.4169
0.322148
4.28902
7.09982
4.91906
-0.515855
8.82017
-2.93925
1.10102
6.70757
-7.80859
7.63907
1.96418
-9.60325
-9.95889
3.1275
6.83139
-4.14566
-7.14385
1.21479
-8.75627
7.54148
5.00135
3.31461
-9.33497
0.0746174
3.08647
0.652617
-3.73908
-2.34627
-12.6003
-10.4947
3.55409
6.94057
-7.64869
0.0191659
7.62953
-8.26894
-0.878381
9.14732
3.19379
5.02751
-8.22129
3.19966
6.46275
9.26315
1.60232
-6.9456
8.04662
0.435561
-8.08425
-9.146
7.42251
1.7235
-6.61097
12.1098
-5.49887
-10.5084
3.95051
-9.90836
5.04346
5.74838
9.53332
-8.3781
-1.53026
-2.12676
-7.01924
3.22992
-9.84088
-8.90316
6.73899
-3.30216
-7.15546
10.4576
-13.5591
7.05489
6.50417
-0.515109
9.57667
-9.06156
9.73148
-0.619655
12.505
-2.5163
-9.98866
4.69628
-8.14009
-2.18714
9.05493
-6.86778
-0.212139
7.00388
8.7243
-2.85706
-5.86724
0.0824003
-7.87464
3.82774
6.83268
-10.6604
8.37698
-4.54924
-9.28663
9.28663
6.12613
-11.4784
5.35229
-7.85392
-5.06102
8.64827
-3.58726
5.04216
-6.744
-1.51939
-14.2148
-12.8591
4.08039
8.77867
12.6862
-4.7732
-7.91299
12.6169
-8.44806
-4.1688
-3.71901
-6.92305
6.86702
1.1006
-7.71713
-3.19779
9.76913
-6.57134
4.39766
3.84709
-8.24474
6.81334
1.84515
-8.65849
8.21397
-9.51438
1.30041
-8.36453
-1.37452
-3.73242
-7.19144
10.9239
3.33461
5.07232
-8.40693
1.27793
-8.24287
6.96494
7.86565
-0.269581
-7.59607
1.49046
6.53551
-8.02597
-6.97814
-4.70464
11.6828
8.12348
-0.257828
-0.281986
0.560592
-0.278606
4.22257
8.28238
-7.93973
-12.119
-3.86727
7.1752
-5.11661
1.8415
-5.2654
3.4239
-10.1827
10.1827
-4.78635
13.0277
-8.24137
-10.1607
6.62377
-0.527071
-0.73491
7.48208
-6.74717
8.4968
-3.9396
2.79848
6.32883
-9.12732
-3.95071
-3.256
7.20671
-10.0621
-4.07792
14.14
16.1
-12.1461
-3.95397
8.67517
-6.74475
7.61234
1.17234
-8.78467
-3.59528
-7.05478
-10.8233
8.34315
2.48019
0.637516
9.89307
-10.5306
-0.0507317
-0.430947
0.481679
10.868
-10.868
-8.01197
11.4225
-3.41055
8.30271
-1.48937
-7.80418
-3.76345
8.50035
-4.65326
-10.8581
4.669
6.18907
10.9274
-7.78617
-3.14126
2.23204
0.566411
-2.79845
-11.6077
8.6332
2.97454
5.71636
-6.81696
-2.63984
10.0843
-7.44447
-5.82079
-5.78695
-9.78537
7.14553
-2.78163
11.8467
-7.08744
-0.0836675
7.17111
4.43869
4.29799
-8.73668
9.38052
10.5026
-0.290621
-10.2119
7.03386
4.27543
0.955806
-8.80972
-5.97632
-4.44118
10.4175
8.52499
-7.31021
-10.7086
4.73229
-1.85835
-8.67023
10.5286
-9.60505
7.74669
-8.84674
8.42786
0.418883
-7.61244
-1.23431
-12.0559
2.26881
9.78712
-1.23295
-6.3153
7.54825
1.06835
-10.1251
9.05674
-7.15191
-0.792656
-7.20044
-2.88142
1.7336
1.14782
3.47178
-7.40843
3.93664
8.05213
-8.05213
-9.30634
5.57391
6.8623
9.23772
-3.03464
-6.2717
-1.85533
7.00529
6.85734
-3.38556
8.1342
-11.7088
3.57456
13.1632
-7.41045
0.323008
2.60163
-10.0948
7.49315
-5.49284
6.75053
-1.2577
6.91145
4.01598
1.66164
6.74264
-11.4681
13.2294
-1.76137
-7.37109
2.54416
-0.800456
6.36477
-5.56431
-4.06431
-9.49474
6.92203
-11.317
4.39499
-7.08696
-0.323481
-0.277463
-0.391012
0.668475
1.70727
-7.05054
-7.0423
-1.01182
8.05413
-9.4929
9.4929
6.44829
-10.1849
3.7366
-10.8041
5.3133
5.4908
-7.80641
12.5378
-4.73138
2.97131
13.0006
-15.9719
9.6655
-2.15294
-7.51256
10.897
-6.40707
-4.48989
8.04733
2.84963
-0.373904
8.58787
1.32488
6.48532
-7.8102
4.62724
-10.206
-5.86642
13.4023
-7.53587
-4.1671
-4.53832
8.70541
10.2887
-2.39757
9.74106
1.21135
-10.9524
-10.6051
4.54927
12.0154
-4.48446
-7.53092
9.89463
-7.22608
-2.66855
1.74242
-0.581045
-1.16137
-16.0983
6.66014
-6.44674
-9.65155
5.63511
-3.79362
9.94223
-2.31537
-7.62686
-8.46308
2.2128
6.25028
-4.52459
12.6588
9.27404
-0.519716
-8.75432
12.8799
-2.9377
1.00089
0.741533
-14.6124
10.5697
4.04274
-9.14493
-1.65917
-5.43356
9.71959
-4.28603
5.62654
-7.19887
1.57233
9.79483
-6.99634
1.63348
-8.72613
7.09265
0.183094
-3.37127
3.18818
9.99415
4.34291
-14.3371
1.48602
-9.81525
11.4259
-9.47795
-1.94795
4.27623
-4.09314
-14.255
-0.829553
16.5061
-6.51191
1.6651
6.86171
-8.52682
-6.18129
7.8464
-2.8524
1.24593
6.14843
1.87952
-8.02795
-7.14678
1.65394
1.97761
5.61181
-7.58942
-0.0534327
-7.76619
7.81963
-4.20108
6.06714
-6.62064
9.10549
-3.6872
-5.41829
10.813
-10.813
-3.99521
-7.62515
5.44648
-15.5086
-1.50951
-0.0277725
1.53729
7.77193
-9.00488
4.76043
4.86963
-6.13806
-4.05591
10.194
-2.19608
7.39737
-5.2013
11.1225
-6.8447
-4.27779
-9.0134
-5.4973
14.5107
12.0584
5.71252
-13.9489
4.17551
9.77335
6.60951
-9.56806
2.95855
0.310444
8.11701
-9.55732
-4.39154
2.52928
6.6991
-9.22838
-11.5485
6.96658
4.58187
-0.323279
8.39254
-0.967369
-10.1756
8.01712
2.15851
-2.22234
1.26558
-11.4766
8.7191
2.75752
-9.33417
8.69737
0.636798
-10.1663
4.86945
5.29689
-12.2844
6.96415
5.32027
0.0230264
0.297658
0.11581
-0.413468
-7.23703
9.34381
-2.10678
-3.1349
-4.29534
7.43024
-11.8427
7.64157
-6.21004
8.41742
-2.20737
1.01853
9.79443
-1.62838
-0.593965
-9.57011
3.36006
-11.2863
3.47988
-9.84185
1.57291
8.69739
-10.0429
-9.19529
1.48914
7.70614
-7.69686
-1.26297
8.95983
8.61371
2.86658
3.01164
7.45896
-10.4706
-3.60525
-6.00827
7.61565
-7.90778
-6.57691
7.24236
-1.8908
-7.67931
0.948708
-9.12903
8.34147
-2.60933
-5.73214
11.1844
-7.41051
-3.77391
-1.68774
-1.19368
-7.92135
10.933
-0.219012
-9.00352
-8.89247
9.43999
-0.54752
-10.1122
5.62888
4.48332
1.74796
5.30041
-7.04836
0.319167
-9.21163
-5.60476
10.0434
-8.69873
1.96762
9.58245
-1.96033
-7.62212
10.8597
-10.8597
11.0383
-3.03652
-8.00174
-2.72885
-3.24135
5.9702
2.28445
-1.54538
-0.739064
-5.23897
2.51012
-0.207477
-2.90002
3.1075
8.87874
-0.548252
-8.33049
10.0213
-0.458413
-9.56293
-0.573351
11.0067
-10.4334
-10.4947
6.25937
-8.62932
-10.0481
-1.26361
11.3117
-6.62879
-4.84784
-12.4574
2.62034
-10.7529
1.41461
9.33832
-9.66046
2.5188
7.14167
-0.00869358
-7.22459
0.246444
-6.48933
0.0719594
6.41737
5.80443
3.77802
8.75757
2.36492
-6.13319
6.05227
-9.71678
2.47193
7.24485
-2.82727
-6.45936
7.60651
1.84727
-9.45378
0.0506672
-7.76532
7.71465
9.94137
-0.275868
6.07578
-11.9422
0.210942
-0.261674
0.054318
-10.8072
-4.63876
7.16805
-4.3583
7.55209
-2.1205
8.8995
-6.779
7.31948
10.9497
-3.34315
-10.0406
-4.5718
2.66615
-2.87362
1.34827
-11.3889
4.59478
-12.3774
7.7826
2.06855
-9.15552
2.17259
7.60388
-9.77648
-7.22161
0.653571
6.56804
-12.8392
3.82583
3.09111
-10.3127
-11.8973
10.6466
1.25075
-2.00457
8.72404
-6.71948
-9.70478
14.3674
-4.66266
-3.30973
15.0988
-11.789
-10.3745
2.12618
-2.96503
0.838848
-9.56422
-1.04084
-4.28864
7.0782
5.85309
-3.87548
6.25492
-11.5751
5.32014
0.437967
-8.843
8.40503
-7.78116
4.35838
-9.93661
1.49066
8.44595
5.51625
2.52193
-8.03818
9.30683
-3.85649
-5.45034
-11.7187
7.82912
3.88962
-10.5696
9.29978
-0.421035
7.21759
3.17794
-10.3955
6.86313
-9.05027
-6.20509
-5.51365
7.37662
-0.184607
0.677058
-0.492452
8.89696
-8.89696
-6.16388
4.78397
1.37991
0.523359
-0.707965
7.32547
1.98136
-7.37889
-4.16956
1.82724
-0.757293
-1.06995
4.01056
-8.99926
4.9887
7.99388
5.16523
-13.1591
4.91008
4.6224
-14.0536
3.77791
10.2757
-17.3763
4.22973
6.60976
-5.33183
10.9845
-10.9845
-0.27587
-8.54913
8.825
-6.36826
-0.856324
3.44434
-9.8126
-0.263386
-2.28559
8.37252
-6.08693
-10.235
7.9494
5.0156
-12.0331
1.1557
-10.3413
9.18562
8.05455
-8.23852
8.31741
-6.18441
-8.78565
9.94135
1.95284
-0.1256
-9.30471
-6.40265
15.7074
0.596897
7.52658
-6.35521
-12.1138
2.8091
3.69155
-9.8296
-4.41142
-8.04596
3.96827
-7.10316
-4.43969
-2.06249
6.50218
0.117222
-9.23157
9.11435
-2.84873
-12.3355
15.1843
-9.17912
9.17912
-3.59123
-7.08597
-9.52063
9.52063
1.58813
-1.58813
11.4065
-5.43077
-5.97574
9.75084
-10.2299
0.479015
-7.91956
5.24276
2.6768
-7.91643
8.55395
-7.04134
4.84526
7.54447
1.56102
2.91121
8.12705
1.04312
1.24132
-9.60026
9.60026
-5.13519
-2.7588
7.89399
2.86915
-8.66011
8.08676
-0.810424
-0.210474
1.0209
2.90761
-6.85832
-4.61692
5.9418
-8.2435
6.7013
1.5422
-9.06116
2.46007
1.81368
-1.17481
-0.638868
-9.03694
9.76138
6.8736
5.66418
-2.69596
-8.12738
-4.60512
-3.19492
7.90826
-3.57894
-4.34061
8.34103
5.54945
10.1287
-2.16761
-7.96107
6.18186
5.11354
11.8418
-7.40575
-4.43602
-0.32426
1.59081
-1.26655
3.0849
-8.14591
9.62302
-5.89605
-3.72697
6.65169
-9.34884
2.69715
-0.248023
0.781798
-0.533775
-9.92741
10.5195
1.84768
-8.56524
6.71756
-13.3132
7.37929
5.93393
0.145356
-9.34064
7.4436
4.00805
-6.85664
-9.12106
9.03256
0.088495
-9.70478
7.83709
1.78593
-0.482258
0.482258
-7.19027
6.67517
-0.330991
0.160243
0.170747
2.53835
-8.94543
-6.15186
10.2704
-4.11853
-10.2661
6.69762
3.56851
-2.27397
-7.53334
9.80731
15.0931
-15.0931
-10.2475
7.97356
8.61477
-11.5515
2.93673
0.0771118
8.53765
0.00120201
-9.33537
3.10931
-0.983124
-3.54329
10.1373
1.47024
0.343446
-8.59759
3.4624
1.754
-3.26235
-2.90153
-10.3298
-1.13957
11.4694
-1.82381
-8.82161
10.6454
6.08986
-10.8762
9.59324
-9.59324
8.31738
-9.26858
0.951195
5.19884
5.57454
9.51853
3.32363
-1.87686
-1.44677
8.30131
-3.03439
-5.26692
-6.34247
-1.97607
8.31854
10.7188
-6.79551
-3.92328
1.03165
-8.56499
-10.1421
4.92348
1.87623
-8.02809
-5.31615
-4.03683
9.35299
-9.36478
7.59866
1.76612
1.80195
-0.437728
-1.36422
-4.56619
-1.38325
5.94944
-8.15633
0.239894
-0.932834
-9.00378
15.3624
-14.4669
-0.895456
1.29588
-0.764065
-0.531812
3.79595
8.82091
1.07701
7.202
8.08801
0.592754
-8.68076
6.6776
-8.71594
2.03835
-7.36
3.11273
-9.39196
-5.03458
10.3646
-5.33001
0.246709
7.27796
-7.52467
-6.67428
11.5363
-4.86206
8.73122
-8.73122
-4.80966
1.52253
3.28712
-9.96766
3.87093
6.09672
11.3179
-3.63746
-7.68047
1.18512
10.1328
-4.1106
11.8836
-7.773
-2.57762
-4.00788
10.1292
-6.12133
-10.2865
-0.463752
1.14535
-0.862431
-0.282919
-0.160243
0.0791148
0.0811287
5.83901
-9.94961
1.71327
-7.56895
-2.12972
2.69613
6.47729
4.7787
-11.256
-1.72789
9.29438
-7.5665
9.49948
-11.4856
1.9861
0.194085
-8.11042
7.91633
-5.23167
7.40426
-2.40942
-5.83409
-7.92623
-0.245992
7.88507
6.39146
0.343143
10.5784
-10.5784
10.8915
-2.82381
-8.06767
9.10148
-7.50878
7.75548
10.9936
0.285417
-9.1997
1.76692
7.43278
-7.85626
9.55994
-1.70368
-6.66719
-3.25131
9.9185
3.12007
6.37941
-4.04443
11.9035
-7.85903
6.40259
5.61226
-9.65669
-9.88393
5.32569
4.55825
8.48828
-9.18339
0.695115
8.68733
2.73857
5.29049
-8.9774
4.96689
4.01051
-0.160243
2.47764
-9.15192
5.96084
5.22358
15.9163
-18.2625
-11.6019
-0.183842
11.7858
3.64922
8.19255
-9.74983
9.74983
8.76735
-1.97901
-6.78834
4.8695
-10.1857
1.25573
4.37081
-8.35391
0.908905
-4.31995
3.18915
5.70781
0.601126
-8.04483
7.4437
0.748162
8.13814
-8.8863
-7.61213
-0.588529
8.20065
-10.9615
9.07069
-8.14821
3.20014
4.94807
0.0340094
-0.476266
0.442257
-6.58542
10.4175
-3.83206
-6.88623
0.608432
6.2778
1.25955
-7.84496
9.75206
-4.23581
2.21341
-10.2254
-7.33348
9.18075
-10.7364
14.9928
-4.25643
5.30795
-10.4007
5.09272
9.01783
-8.55262
-0.465205
-1.34629
6.9581
-13.1881
2.85832
-6.75713
6.80779
2.01472
11.1062
-2.3389
-1.45123
7.59966
0.192478
-7.8046
9.53519
-3.01321
-6.52198
-2.94924
2.94924
10.307
-12.0017
1.69468
2.71654
8.05744
0.923108
-8.98055
-9.45163
6.14948
7.56593
3.15286
1.64407
5.20941
-6.85349
-6.84053
2.27434
10.326
-10.326
-0.408024
10.5147
-16.4467
5.93203
2.5593
-9.64534
-4.48063
-4.57332
9.05395
-4.66095
-3.33461
7.99556
-9.9484
0.163031
-2.76994
-7.17847
7.8045
2.46589
3.52418
-9.84726
6.32308
17.2736
-6.58367
-10.6899
7.1054
-11.6584
4.55296
-6.32371
-6.98951
-5.22911
8.75329
3.3143
4.04221
-7.35651
-7.40637
-1.45784
8.86421
-4.23733
8.83211
-3.01421
-7.75938
10.7736
-1.37282
-2.56589
3.93872
-9.68044
6.57598
3.10447
6.91859
-8.92316
2.60935
4.24799
9.02211
-9.02211
-3.32502
6.63932
-15.4619
14.0648
1.39712
8.41246
-6.78126
-2.19614
3.06259
7.25503
-10.3176
-8.98742
9.87228
-0.884864
6.65078
-5.47844
3.95427
-7.96215
-5.289
4.65263
-7.87985
10.4734
-8.59713
8.75432
3.93186
-13.7811
12.2169
1.56419
10.2191
3.18324
-1.20121
-7.3128
8.51401
-7.21041
9.05809
5.94133
-14.6507
8.70941
-9.48647
8.28527
-12.1064
7.40139
4.70501
6.74572
-13.4691
6.72339
7.19905
-7.46863
15.1749
-7.18103
0.455152
-7.86152
-5.96087
-4.30526
-8.3436
2.24344
6.10016
11.7686
-8.75566
-3.01293
7.3274
-13.0903
2.93163
10.1587
6.80512
-1.02313
-5.78199
9.08584
-9.08584
11.9888
-10.8711
-1.11765
-13.2204
8.66717
-1.46812
15.3196
-15.3196
1.3777
1.8541
-3.2318
-8.24258
4.36929
3.87329
1.35216
-10.2292
8.87708
8.08895
-6.59849
-8.57353
1.26072
6.00762
-9.02183
0.564038
-1.37446
4.62571
-1.53924
-11.3324
1.63368
9.6987
-4.71639
-4.61175
13.7277
-10.6708
-3.05691
9.41139
-4.10345
1.27656
-11.7302
10.4536
5.70108
7.20657
1.1349
0.494402
-7.82529
7.33088
-15.606
13.6792
1.9268
-0.343596
0.343596
-0.78917
8.36997
-7.5808
-11.2509
-1.03348
-2.05852
-6.40456
2.34557
-8.78775
6.44217
2.08628
-8.42875
-10.3725
10.3725
-9.46162
10.8963
-1.43467
9.86032
0.997608
-10.8579
-14.5338
11.6851
10.5283
-10.1123
-0.415998
-8.18326
-4.6758
-0.234325
-7.56121
7.79553
-14.0536
7.09308
-6.30012
6.79452
11.2133
-4.46761
8.23031
2.29801
-6.94586
-3.22977
7.88663
-8.30495
0.418327
-7.71959
0.339651
7.37994
-5.4415
-2.27808
-1.40747
2.78517
-0.359016
-8.20455
8.56357
9.80546
-9.64228
-7.98571
7.62669
-3.07007
6.57578
-3.50571
1.37735
8.51572
3.33132
-6.40139
7.67873
-7.89774
-10.8436
7.33186
3.51171
-5.06015
-9.13372
9.13372
9.36073
0.390107
-7.4183
-8.33864
0.776332
7.56231
10.0859
-2.40718
8.65564
-2.04613
6.33271
-11.4641
5.1314
-0.326696
2.18079
-3.45713
2.04966
-7.20477
0.715442
5.65684
-7.50202
1.84518
-3.25579
4.50357
-1.24778
-2.99155
-5.17497
0.730984
6.92555
-7.65653
3.85124
1.34223
7.35187
8.21958
-0.775979
-3.24811
-6.43233
-12.5205
11.1242
1.39635
3.11481
5.61641
0.973221
-7.24249
6.26927
-0.467589
0.0366424
1.79661
8.51038
7.36428
-8.82212
6.11759
-12.4249
6.30735
-0.87925
8.55919
-7.67994
-6.23966
10.7453
-3.38105
-2.89817
9.01576
-0.841066
7.32639
-4.33937
-8.21971
-10.2468
1.1019
-3.45248
-3.33791
-6.41191
-8.12855
7.3281
-15.3012
2.73468
12.5665
1.62392
-0.358343
-6.80286
9.14843
-0.118469
-9.12502
9.24348
6.13427
-5.40328
9.96425
-7.06565
-2.8986
0.551344
6.25378
-9.3446
9.3446
0.548232
-8.32562
7.77739
-9.04241
7.73467
1.30774
7.49111
-9.69848
8.58023
-11.392
2.8118
8.87154
-16.789
7.91744
0.222665
8.35757
-6.20689
10.4295
4.01384
-7.56888
-3.0819
11.9534
10.4567
-2.77238
-7.68431
-5.799
-0.694167
6.49317
-7.428
10.5946
4.20914
6.81247
-4.5571
-6.40122
10.9583
6.99921
2.76712
-9.76633
-15.1627
11.0581
4.10462
-1.54866
-1.19496
-8.22853
8.22853
-4.72548
9.53998
7.15113
3.30556
-4.05341
-3.69417
7.74758
-6.30946
-2.17371
7.21587
-6.83096
-2.21145
-0.979445
14.3243
-4.52014
-9.80421
6.25027
-10.3037
-2.90341
4.54307
-1.63967
-14.0475
5.61337
8.43413
8.97977
-7.62761
-3.16057
-5.75577
8.91634
0.300308
-9.65976
9.35946
-8.76733
5.60676
0.517955
-6.53016
6.01221
-4.03969
-11.5663
9.53519
-5.42688
5.21474
6.36444
-9.1798
2.81536
-6.72465
-1.50388
-3.73274
-4.61086
-1.50624
7.83895
-2.55953
8.63531
16.3249
-10.6349
-5.69003
-1.91611
8.28055
-2.69536
-4.15024
6.8456
13.0561
-10.4776
-2.57848
-6.68969
7.00013
5.68073
-9.40738
14.5231
-5.1157
11.1744
-2.72962
-8.44478
-0.833764
8.15047
-7.31671
-2.63604
-6.96422
10.5153
-2.29569
11.587
-0.41263
-11.3075
4.61784
-3.52564
-11.5174
-1.00316
-4.56042
-8.36736
12.9278
2.03134
-8.54023
6.50889
-12.0861
8.24147
3.84468
9.967
2.58136
2.32409
-8.99128
-4.02285
-0.773583
4.79643
-2.79516
-6.72547
-6.8369
-2.44717
9.28407
-7.60265
9.50529
11.9907
1.06537
-8.47779
0.875135
-4.00411
-1.79551
8.75103
-0.693589
8.81977
-0.380972
-8.4388
-11.0314
12.8591
-1.82775
3.74182
5.76347
-9.24439
2.7574
6.48699
-1.92026
-9.11109
-4.50996
7.43128
1.23935
5.41234
1.25703
-0.900179
-0.356847
10.6607
-10.2697
-0.391043
-11.9313
8.33602
-0.326993
0.812774
-0.485781
8.57755
1.92502
15.7317
-15.7317
-8.66488
-3.46305
10.5894
-7.12634
-0.989205
-7.21094
8.20015
-3.42428
7.10615
-3.68186
7.65894
-3.00531
-4.65363
-3.18345
-7.17605
3.87531
6.9927
1.07303
2.74045
-3.81347
8.07867
3.91012
-8.98783
1.7964
7.84141
6.60804
-6.05981
-5.1106
8.85242
8.0517
1.84293
1.28212
6.76959
-8.44806
-6.93594
11.5222
-4.58627
4.85974
-12.6296
7.76983
10.5371
-3.16953
-7.36754
-5.48152
-1.69402
7.17554
3.80001
-8.28064
-6.03997
6.33481
-4.8824
1.33753
3.54486
-8.65581
2.39847
6.25734
-0.922129
8.13972
1.63589
6.92739
-8.65528
1.25123
8.91354
-10.1648
11.4746
-10.9673
-0.50729
0.527229
7.13405
-7.66128
5.76037
3.25746
-9.79939
-1.66472
-8.7337
-1.23396
8.58201
-7.68136
-0.900646
-13.9756
12.836
7.52959
-5.16288
-2.36671
-8.33031
2.53131
-7.25035
9.77183
7.23673
-9.2128
11.0391
-0.910385
3.79117
-5.85366
-9.36293
10.6142
-6.64889
9.0514
-2.40251
-8.16849
4.97358
-9.95028
0.463809
-0.0949449
10.632
-7.78175
-1.87871
0.393998
-7.62008
9.27404
-16.6174
7.21006
9.56532
1.97102
11.4378
-6.27524
-5.16252
11.5235
-0.0857469
-4.03531
-7.67345
-7.35994
5.19233
8.80347
-1.88144
-1.45461
-8.53744
9.99206
5.10261
12.171
-9.2707
6.56686
2.70384
-1.11631
-9.91794
11.0343
10.2626
-8.23553
-2.02708
2.23659
-9.96638
-8.30482
-0.0732864
-8.65964
-6.99177
1.87762
-9.11464
-14.4926
1.84013
12.6525
-9.79293
9.79293
7.41588
8.657
-9.99836
1.34136
-2.79847
-2.00964
-7.26106
-7.49635
-1.08836
9.74536
3.96752
-3.3149
-7.08856
3.02529
6.56795
6.69639
-6.16916
0.456685
-0.159027
-4.8824
8.9203
-0.57983
-8.34047
11.8125
4.6936
-8.46603
9.7851
-0.864807
9.4918
-11.8638
2.37198
0.275106
7.46241
-7.73751
-1.40107
-6.71734
8.11841
7.7754
-6.02744
7.78587
-7.51076
-12.1379
3.46767
-9.39221
-0.980243
-9.00809
8.77772
0.230368
7.12392
-6.81757
-5.32034
-11.9007
-3.56124
-6.87835
8.02194
-4.90187
-12.4927
8.41478
-5.80485
-0.256534
5.30192
-5.04538
9.27363
0.790797
-10.0644
1.58394
5.0142
-6.59813
-12.0355
0.703096
7.55172
-6.06328
6.66441
10.3487
-10.3487
10.562
-15.1224
-10.8867
-4.98399
-4.28459
9.26859
-5.81699
-3.53185
7.04925
5.83068
1.25531
-5.4138
4.15849
-9.20531
4.54436
6.17485
-9.74692
2.48501
7.26191
-3.50695
-5.15454
8.66148
-5.92259
5.08153
-9.08483
-10.7958
-0.0346796
10.8305
7.766
1.3631
-9.1291
10.3579
-10.1192
-0.238752
2.77121
-9.70715
8.14218
3.33909
4.65883
4.35687
-9.0157
9.44133
-0.146946
-1.64671
-5.88432
6.29496
0.257075
1.4754
7.06325
-8.53865
-9.71678
9.94539
-1.7726
-8.17279
7.25167
4.48819
-11.7399
-7.68461
12.5444
12.0844
-4.65422
-7.43015
-3.86886
-12.8138
16.6827
0.406636
0.527124
-0.93376
6.32394
-12.5504
6.22647
10.3736
-8.84455
-1.52901
-10.328
2.12155
8.20648
-11.6148
0.146765
1.14379
0.152085
11.0833
-3.30343
-7.7799
3.85297
6.72547
-2.85073
9.17468
0.523017
-10.851
-0.489261
-7.04758
6.13824
0.909339
-7.51177
-4.57437
-0.736534
-2.21271
-15.7632
17.59
-1.8268
-9.28666
8.77712
0.509547
-3.90263
-6.95544
5.92196
9.44042
0.35523
0.790121
-11.4203
11.6167
-9.1391
-13.7608
7.93635
5.82445
-3.75954
15.818
5.50332
6.58106
3.16765
-9.80595
1.94968
-10.5568
3.3434
7.2134
-3.94704
-10.2452
11.0472
-0.80203
-6.56589
-2.41076
2.91687
-8.05475
-8.71091
8.35421
0.356696
-2.52571
-5.54967
7.18314
-8.69664
8.69664
-0.335568
-8.37534
10.0213
4.50785
4.33148
-10.2694
5.93795
9.09458
8.66717
-8.69278
0.0256115
-5.21574
5.81264
-14.8542
4.72339
3.12569
7.734
9.04964
-8.61628
-2.70074
-11.4923
6.48303
5.0093
-6.59092
-2.5882
10.3384
-10.3384
9.88236
-4.22375
-5.65861
-1.93425
6.90115
-8.20627
7.04939
1.15688
-9.60707
9.60707
7.24247
3.41824
3.0339
4.90561
-7.93951
0.356918
-0.604941
7.05117
-5.46723
6.60164
-9.38326
3.5797
7.31178
-1.85744
-5.52145
-10.3284
11.2785
-0.950116
8.45206
1.4303
9.19652
0.279063
-9.47559
-11.8642
8.92654
4.94729
-15.1765
-10.7822
5.85834
-7.67999
-4.18424
8.96735
-1.75148
-8.91286
11.4317
-16.3933
8.9653
3.28259
-12.0749
8.79235
7.91653
-5.83025
-7.36216
10.2089
-9.26826
2.47985
6.78841
-11.1324
-2.62839
-3.77166
-2.98932
6.76099
5.24925
6.86058
9.2925
-1.96703
2.08765
7.20485
-2.59986
6.39103
-2.80431
8.43319
8.73351
-8.05939
-0.674121
-7.75259
-3.2089
-3.65535
8.31418
-3.41557
13.9303
3.5436
-10.1205
0.643357
2.75399
-6.52565
-9.89635
3.58105
7.2495
1.05181
2.69824
2.44909
-5.69846
3.24937
-9.26707
0.289686
8.97739
-4.36746
7.92155
-12.0903
7.89232
4.19796
-11.6158
-0.474527
10.3651
0.400496
9.32956
-7.65035
-1.67921
10.857
-2.8399
10.2093
-10.2093
-7.7108
-1.55746
1.18064
6.39642
-7.57706
12.3088
7.87098
-6.69034
0.915209
7.73255
-8.64776
3.81602
5.08348
10.764
-5.09884
-5.66516
-8.6025
0.905639
-3.19506
-5.60128
-9.71983
11.9475
-2.22769
-3.69569
-10.7068
-3.03317
10.3823
-0.6851
6.33356
-9.38512
3.05155
-6.94028
-4.06808
11.0084
7.99861
-0.314227
-7.68438
1.59802
8.2623
8.3357
0.24631
5.93629
-5.98972
-4.63291
-10.8253
4.30987
6.51545
-8.25425
7.09173
-7.08344
-7.84226
-2.98305
-8.94754
7.05953
1.88801
9.3141
-6.34804
-2.96606
-9.55577
8.58424
0.971525
7.9766
0.0707245
0.378305
-0.262496
8.23362
-0.317316
0.317316
6.91791
3.63165
6.15203
-10.6269
4.47492
-0.387999
-5.44114
9.27296
-8.23564
-1.03732
4.82589
4.44707
5.74731
5.7762
-11.2895
-5.10385
0.309776
0.947251
-10.1615
4.41391
5.74762
-7.89316
-2.11897
10.0121
8.52019
1.4252
-8.34924
-0.919338
-0.320294
-8.40583
5.61744
3.49739
-9.11483
-0.561147
-4.492
5.05315
10.6319
-4.28492
-6.34694
0.764281
-9.7517
9.84958
2.03402
4.10133
5.74825
8.77653
-4.39737
-4.37917
2.56275
6.45936
12.0181
-12.0181
-13.5669
10.1907
4.90809
-15.9361
10.3853
5.55087
-9.11552
8.27599
0.839529
9.41148
0.878118
-10.2896
4.80092
-7.79024
-8.50859
1.94793
6.56066
9.29238
-1.04005
-8.25233
10.2924
-3.68432
8.56712
1.72524
3.38377
7.60074
-1.81097
8.42637
1.16739
-9.59376
0.14992
9.16418
7.38021
-0.462301
8.77942
-3.63454
-5.14488
-0.0068677
-0.182409
-1.97962
-7.95223
1.00177
-7.85086
6.84909
9.84516
-11.292
5.85119
-7.91607
0.417982
7.49808
-9.36064
1.44458
-10.1357
-4.06971
14.2054
-2.42182
10.8482
3.31089
0.606148
8.03586
-8.64201
6.34594
0.342571
-7.97497
8.58111
-6.82019
2.79734
-5.98416
-2.27974
8.2639
1.71959
-7.70375
-12.7893
11.9609
0.828459
7.84777
-6.59735
4.75565
-6.6131
9.84018
-8.63
-1.21019
8.02754
9.0967
-3.79629
14.3243
9.98055
-4.36311
5.00831
-2.39896
2.64516
6.44069
10.9751
-3.79994
8.11891
2.85623
-8.36111
9.202
-0.840895
7.18764
0.580943
-7.76858
-7.92864
-2.21341
-1.05897
16.4735
-9.90716
-6.56632
-13.5372
13.0263
0.51093
-9.1794
-0.537387
0.463351
-9.92835
9.465
-6.07648
-0.964864
6.39266
-9.36897
2.97631
-7.63208
11.41
10.606
-5.82099
-4.78498
-7.02768
4.00236
3.02532
9.08203
-5.97885
-5.31307
-4.57086
-5.99325
-4.78896
1.98628
-2.73281
-3.40329
9.48003
-6.07674
8.11241
-6.63702
10.8501
-10.8501
-8.32334
-0.860051
-13.0763
8.20657
4.86973
-9.08205
-3.99425
6.13989
-5.82098
-0.318913
1.98498
7.09705
-7.94622
-1.54668
9.57298
1.19305
-10.766
0.669391
2.43991
11.9052
-6.78527
-5.11996
0.955025
-1.00649
0.05146
7.02185
-4.9905
9.07269
-2.07348
-5.46557
-6.15018
-2.81303
-5.84277
8.16931
-8.16931
0.620853
8.96383
-9.58468
5.53825
-3.29705
-6.44987
9.15518
-2.90026
-8.62467
0.4019
3.07125
-2.40186
14.065
-8.54163
-5.52342
7.4685
-8.92312
-10.9782
5.48601
5.4922
8.55977
-0.471762
-4.48938
-4.63785
-11.2983
-11.7736
9.22827
2.54532
-9.55788
-1.2379
10.1771
-1.77039
0.610285
-0.610285
4.74824
5.63407
-4.91337
8.88408
-3.97071
-3.17213
-1.36728
8.95439
-7.58711
2.96797
7.95589
-7.86185
10.9408
-12.4096
-3.21756
6.04418
3.05484
-9.72
-0.46489
3.42436
-8.07639
4.65203
11.3929
-3.2855
-8.10736
1.65476
-0.685136
-0.969621
0.784929
8.28361
9.78241
-10.0693
5.60009
4.46922
-12.9134
12.9134
-2.78517
10.0368
-0.476395
-7.24485
-9.39909
10.5248
-1.1257
-3.24216
-6.94057
0.953101
-1.27736
0.644926
-9.17578
8.53085
-8.74226
-5.79159
3.45284
3.86453
-7.31737
-3.73677
4.8098
-2.25509
7.28259
6.25878
-0.118887
-0.718398
7.05196
9.84346
-9.84346
7.53725
-4.08441
-16.1777
11.4078
4.76985
-5.70045
-6.03185
10.1993
-4.16745
10.6413
-8.78541
-1.85588
5.04761
5.59368
-6.82935
8.00773
-1.17838
-14.1722
8.41225
5.75997
-5.43621
8.03783
-8.11435
2.67815
-5.8655
7.81343
11.0208
-7.27183
-3.74897
-1.39401
1.39401
6.0287
-15.6047
9.57599
2.0598
-2.79634
8.72926
2.29154
8.06232
-10.8904
2.82811
2.43009
0.746142
-3.17624
9.05363
2.36888
5.21461
-5.21461
0.419149
7.3021
7.5368
4.36843
-9.76444
1.94476
7.81968
-8.21119
-1.55896
-8.41397
9.97293
7.7794
-6.7886
10.2347
-2.68857
-7.54614
-1.28763
3.99302
-6.15059
4.62652
8.81353
-5.11586
-6.36256
6.05096
-8.58621
2.53524
0.639333
0.194613
-0.833946
11.6032