/*--------------------------------*- C++ -*----------------------------------*\
  =========                 |
  \\      /  F ield         | OpenFOAM: The Open Source CFD Toolbox
   \\    /   O peration     | Website:  https://openfoam.org
    \\  /    A nd           | Version:  9
     \\/     M anipulation  |
\*---------------------------------------------------------------------------*/
FoamFile
{
    format      ascii;
    class       volVectorField;
    location    "0.3";
    object      U;
}
// * * * * * * * * * * * * * * * * * * * * * * * * * * * * * * * * * * * * * //

dimensions      [0 1 -1 0 0 0 0];

internalField   nonuniform List<vector> 
97292
(
(0.116293 -0.906768 0)
(0.0374616 0.876892 1.74926e-20)
(0.0435606 -0.954876 -2.61058e-19)
(0.000212521 -0.935505 2.71053e-20)
(-0.117929 -0.928568 2.48861e-19)
(-0.0394583 0.864359 -1.9799e-21)
(0.000812815 -0.893723 -1.03346e-19)
(0.0206827 0.869596 -1.03688e-20)
(0.740916 0.571322 9.34209e-21)
(0.0066485 -0.819547 1.05485e-19)
(0.293409 -0.859285 0)
(0.259402 -0.847745 5.80669e-20)
(-0.0486253 -0.81454 0)
(0.072856 -0.960464 1.81356e-19)
(-0.0441627 -0.958803 -8.24486e-20)
(-0.034934 -0.84305 6.01228e-20)
(0.0269145 0.765678 -1.36425e-21)
(0.735375 0.703776 -7.76403e-20)
(0.860437 -0.0682747 -8.4461e-20)
(0.320799 -0.945232 -3.31123e-22)
(0.0309204 0.730015 -1.67238e-22)
(0.034968 0.821485 -2.01449e-20)
(0.0535227 0.902678 -1.11035e-20)
(0.0362197 0.873571 0)
(-0.0266073 0.852015 -1.41759e-20)
(0.0553505 0.874114 1.57461e-20)
(0.01519 0.962991 8.64194e-22)
(-0.0158431 0.967217 -2.88644e-22)
(0.0183536 0.797862 4.42528e-20)
(0.00373803 0.798686 1.49125e-20)
(0.584834 0.635881 -3.74362e-20)
(0.327885 0.878523 1.80976e-20)
(-0.0304905 0.979782 -9.81415e-22)
(0.886073 0.0686367 -7.47597e-20)
(0.29909 -0.9677 0)
(1.30024 0.735296 0)
(0.534875 0.896081 0)
(1.31214 0.651352 7.55229e-20)
(0.349456 0.74412 0)
(1.24769 0.714563 0)
(0.00720751 0.945418 0)
(0.0311404 0.883083 1.29792e-21)
(0.357101 0.684159 -4.96887e-20)
(-0.195477 -0.962818 1.48776e-19)
(0.103025 0.916361 0)
(1.16729 -0.187436 -2.47173e-20)
(1.04073 -0.425107 2.5374e-20)
(-0.0146977 0.884107 -1.58875e-20)
(0.0206845 0.995627 -1.28e-20)
(0.0330545 0.824026 0)
(-0.00321404 -0.953651 0)
(1.09368 0.435834 8.97286e-20)
(0.0789726 0.257375 0)
(-0.0287725 -1.02363 5.96056e-20)
(0.663878 -0.919229 1.45882e-19)
(0.531528 -0.537401 2.77458e-20)
(1.41461 0.813146 -4.64696e-20)
(0.0739666 0.822761 0)
(0.0426707 -0.841019 -1.28369e-19)
(0.792747 -0.373857 0)
(-0.0263032 -0.98286 1.71093e-20)
(0.599526 -0.546005 2.72366e-20)
(-0.0238622 0.86324 1.92741e-21)
(-0.046511 0.849655 0)
(-0.0179269 -0.983158 1.81661e-19)
(0.622736 -1.00444 4.19126e-20)
(-0.0581679 -1.0074 0)
(0.0699321 -0.912341 5.67708e-20)
(-0.0380416 0.840213 2.35207e-20)
(0.0753806 -0.00799668 -3.82908e-20)
(-0.00258203 0.901891 0)
(-0.0713666 -1.00625 0)
(1.22536 0.0319106 0)
(0.0501848 -0.958556 7.99486e-20)
(0.0292216 -0.00997294 0)
(0.0840747 -0.900636 1.33553e-19)
(0.929251 0.0276901 0)
(0.00616939 0.960248 -1.48086e-20)
(0.0609292 0.886358 2.12746e-20)
(0.292905 -0.75921 -6.16124e-20)
(0.0507927 0.949543 0)
(0.154012 -0.909507 -1.24646e-19)
(0.0177312 -0.786206 -5.37879e-20)
(0.00823943 0.93392 -2.96391e-22)
(0.267391 -0.982402 4.54952e-23)
(0.424002 -1.08837 0)
(0.135536 0.130425 0)
(-0.0245099 0.956449 2.79214e-20)
(0.439613 -0.410167 0)
(1.12323 0.874008 2.63816e-20)
(0.0254073 -0.0198892 -1.5593e-20)
(-0.00118346 -0.935533 -2.66405e-20)
(0.269004 0.0458796 0)
(0.226803 0.27153 -2.80339e-20)
(-0.0262085 0.897588 9.4046e-21)
(0.0579029 0.83156 -1.76296e-20)
(-0.0468129 -1.04622 -1.79761e-19)
(0.157743 -1.15919 4.82479e-20)
(-0.0620287 0.852496 0)
(0.574224 -0.406169 0)
(1.03597 0.296429 0)
(0.414043 0.79724 2.63256e-20)
(0.352395 -0.69148 5.19569e-20)
(0.11543 0.129235 0)
(-0.075682 0.943529 6.3824e-21)
(0.444402 0.551597 -2.0123e-20)
(0.0123879 0.928899 8.32378e-23)
(1.19414 -0.0784798 7.63093e-20)
(0.102248 -0.938193 -1.41559e-19)
(0.561607 1.02528 5.1653e-22)
(0.543376 -0.482881 -7.35011e-20)
(0.0410454 -0.907865 -4.06756e-20)
(0.0473854 0.888143 7.8013e-21)
(1.00114 0.410923 0)
(-0.00540593 -0.963184 6.13493e-20)
(0.133848 -0.919704 3.62378e-20)
(0.0711344 0.883053 0)
(0.0214991 -0.879133 6.86795e-20)
(0.0165607 0.894418 0)
(1.13668 0.167217 9.58947e-20)
(-0.103668 0.944722 -4.37079e-21)
(-0.0163861 -0.956711 0)
(0.0226099 1.04937 -1.38508e-20)
(0.129104 0.0822143 -1.73934e-20)
(-0.0717472 -0.996126 4.68024e-21)
(0.21422 0.634156 2.91397e-22)
(0.106579 0.0593238 -1.49519e-20)
(-0.109589 -0.983407 0)
(1.37024 -0.064694 0)
(0.19873 0.656852 -1.83715e-20)
(1.11756 0.689151 -1.73028e-21)
(0.0729784 0.797422 -1.29554e-20)
(0.0232373 0.92289 0)
(-0.0302105 0.816254 3.8147e-22)
(0.580904 -0.519728 -2.7828e-20)
(0.23693 -0.983957 0)
(-0.01185 0.923498 -3.04536e-20)
(0.876391 -0.429148 -6.04475e-20)
(0.142461 0.439896 0)
(0.272421 0.0563589 1.61012e-20)
(-0.0369672 -0.946187 -5.76799e-20)
(0.00829159 0.995126 1.81801e-20)
(-0.0825688 -0.991294 1.2337e-19)
(1.04971 0.721939 0)
(-0.0178016 -0.950226 0)
(1.01662 0.677876 -1.28891e-20)
(0.208136 -0.956581 -3.35196e-20)
(-0.0414392 0.927972 -2.16828e-20)
(0.715713 -0.366351 4.50175e-20)
(0.0424683 0.864741 -8.33316e-22)
(0.109973 -0.777432 -2.03876e-19)
(0.000330941 -0.988941 7.95653e-20)
(0.0827861 -0.962905 1.40077e-19)
(0.42629 -0.966633 8.35369e-20)
(-0.0202429 -1.00916 0)
(0.883101 0.71151 1.70621e-20)
(0.0665906 -1.14549 -4.89489e-20)
(-0.0531088 0.86699 -9.85757e-21)
(-0.122465 0.931054 1.55655e-20)
(0.515048 0.54142 -2.01735e-20)
(0.0699863 -0.935039 -3.15916e-20)
(0.00302545 0.918519 -2.49588e-22)
(-0.0732164 0.843751 3.34826e-20)
(0.034863 -0.0122082 0)
(0.857399 0.7533 2.31846e-20)
(-0.0980872 -0.812383 7.24051e-20)
(0.103511 -0.897153 4.65146e-22)
(0.0368269 -0.0211922 0)
(0.139239 -1.08439 1.44142e-19)
(0.459178 0.598331 1.09495e-20)
(0.650646 -0.423627 -9.15626e-20)
(1.27309 0.743027 0)
(0.074279 -0.942328 5.11575e-20)
(1.17876 0.327944 -6.87775e-20)
(0.0118 0.911273 0)
(0.556536 -0.502576 -1.00151e-19)
(1.08422 -0.451551 -7.28141e-20)
(0.757656 -0.423261 0)
(0.199804 -0.333371 -8.67159e-21)
(1.08112 0.655932 -5.07392e-20)
(-0.0280405 -0.99191 -1.35039e-19)
(1.44315 -0.401904 -8.01433e-20)
(0.0598309 -0.0431667 -1.77814e-20)
(-0.01507 0.873297 -1.12784e-20)
(0.000682156 -0.941841 0)
(0.0149866 -0.859558 0)
(0.0408317 -0.0346785 0)
(-0.0920061 -0.879087 4.75602e-20)
(0.0687301 -0.921175 5.67629e-20)
(0.0897951 -0.863272 1.16494e-19)
(1.31355 -0.244967 4.70026e-22)
(-0.0286478 -0.887305 9.77289e-20)
(0.0258499 0.877632 1.04636e-20)
(0.4898 0.53121 -2.30698e-20)
(-0.00660801 -1.01895 8.43744e-20)
(1.05753 1.11087 2.73603e-20)
(-0.0886049 0.9168 0)
(0.0228614 0.843332 0)
(-0.00772524 -0.923433 -2.18228e-19)
(0.41244 -0.52524 -1.23095e-19)
(0.79251 -0.469642 0)
(0.298764 -0.389864 0)
(0.0350919 -0.956332 -7.65579e-21)
(-0.0301092 -0.908364 -1.26765e-19)
(-0.0348522 -0.999178 0)
(-0.0411168 -0.899614 8.31118e-20)
(0.995767 0.255293 0)
(0.19834 -0.581728 1.08516e-20)
(0.358228 -0.512005 -3.45531e-22)
(1.24054 0.197373 0)
(-0.00109175 0.880392 8.27682e-22)
(0.143746 0.863033 3.73367e-20)
(0.218272 0.895126 1.84966e-20)
(0.0343171 -1.00878 -3.95448e-20)
(1.00434 0.951372 0)
(-0.0687456 -0.961784 -1.49785e-19)
(-0.0120767 0.829923 0)
(1.48898 0.124436 6.27093e-20)
(-0.0438264 0.937868 0)
(-0.00271622 0.886794 0)
(0.0675518 -0.0103237 -4.68508e-21)
(-0.0599927 0.959791 -7.18185e-22)
(-0.026863 0.891436 0)
(0.56236 -0.402184 4.1274e-20)
(0.887108 -0.543359 -4.22521e-20)
(0.0376386 0.89033 -3.24962e-21)
(0.0265391 -1.03179 -1.00042e-19)
(0.0443855 -0.900195 -4.15512e-20)
(0.028765 0.97308 3.62785e-21)
(1.1649 -0.575969 0)
(-0.0297617 0.916361 0)
(0.0812774 -0.847266 0)
(-0.0524114 -1.03568 -1.17167e-20)
(0.646409 -0.350372 -9.23579e-20)
(0.710673 -0.361869 4.27729e-20)
(0.0440578 0.89316 4.47837e-20)
(0.890282 0.999966 1.42408e-20)
(0.0741404 0.967224 -4.35881e-20)
(0.0834923 0.946755 2.93744e-20)
(1.09899 0.795365 -2.44714e-20)
(0.057423 -0.998502 -1.42361e-19)
(-0.00905466 -0.987142 -8.11897e-20)
(0.0594378 -1.0299 -6.51728e-20)
(0.00531431 0.956551 2.3468e-21)
(0.0987895 -0.906609 0)
(0.89342 -0.604051 -2.30539e-20)
(0.573511 -0.802068 1.66518e-19)
(-0.0798075 -1.02463 -6.53945e-20)
(0.0936804 0.438515 -1.2612e-20)
(-0.0689557 -0.882088 -1.21285e-19)
(-0.0040921 -0.869426 0)
(0.0779999 0.872099 0)
(0.531569 0.554387 -5.04566e-21)
(-0.0974672 -1.00621 -6.31917e-20)
(0.051398 -0.847015 -1.01349e-19)
(0.18418 -0.884105 8.10086e-20)
(-0.077714 0.984025 0)
(0.0632815 0.462363 0)
(1.46228 0.1748 -6.16295e-20)
(-0.104192 0.929686 1.99798e-20)
(-0.0696558 -1.01552 0)
(0.0382774 0.882243 0)
(-0.00833412 0.909684 0)
(0.552138 -0.528333 0)
(0.49684 0.959016 0)
(0.00333485 -0.909919 0)
(0.0137644 -0.946773 1.04265e-20)
(0.128088 -0.969236 -3.88937e-20)
(0.0347598 -0.981608 0)
(-0.0352173 -0.940801 3.59018e-20)
(-0.00233056 0.973912 1.60533e-20)
(1.19662 0.48379 4.90347e-20)
(0.0656958 0.90841 -2.71142e-20)
(0.02563 -0.861667 0)
(0.00690697 -0.921195 -7.75249e-21)
(0.407654 -0.701775 -5.09141e-20)
(1.03465 0.0707486 7.82829e-20)
(0.0532171 -1.07133 1.41155e-19)
(0.00681921 0.934908 4.73416e-22)
(1.11036 0.357673 -5.88696e-20)
(1.19668 -0.0120817 9.02973e-20)
(0.699698 0.792618 -2.89833e-20)
(0.00664986 0.889001 1.10043e-20)
(0.585923 0.6838 -1.36337e-20)
(0.279061 0.629567 -5.2213e-20)
(-0.0622891 0.927072 -1.94904e-20)
(0.0442634 0.86821 -1.30025e-20)
(0.0301271 0.813466 0)
(-0.0405726 0.884591 1.08826e-20)
(-0.0838765 0.91497 -1.1e-21)
(0.0793055 0.839138 0)
(0.684023 -0.445977 0)
(0.0207792 0.872948 -2.16107e-20)
(0.539395 0.650345 3.92414e-20)
(1.33772 -0.321047 7.58322e-20)
(0.0695981 -1.02227 -2.69478e-20)
(0.0585096 -0.981471 0)
(-0.0248408 -0.868717 -1.67054e-19)
(-0.0465465 -0.99727 -6.41047e-22)
(0.31404 0.69929 4.95423e-20)
(0.728369 -0.302913 -1.17832e-20)
(0.0471102 -0.849216 6.78231e-20)
(-0.00194306 0.829707 -8.2354e-21)
(0.0146453 -0.865524 -1.18434e-19)
(-0.0353072 0.935716 -7.97444e-22)
(0.650524 -0.843623 -2.95298e-20)
(-0.0238669 0.930267 0)
(0.139131 0.916115 0)
(0.0424547 0.84817 -6.74428e-21)
(0.244347 0.763683 3.85256e-20)
(-0.0112288 0.869548 1.96339e-21)
(0.0503624 0.81997 0)
(0.322434 0.848843 0)
(0.0527372 -0.0157249 0)
(1.36209 0.0278224 -9.6115e-20)
(0.114296 0.979273 -2.91621e-20)
(1.29543 0.0819453 2.98369e-20)
(-0.0108219 0.819915 0)
(0.458513 0.349547 -3.96597e-20)
(0.0676139 0.869005 -2.01413e-20)
(0.603696 -0.964385 -2.38382e-20)
(1.16412 0.123421 0)
(0.0599354 -0.0071082 0)
(0.225873 -0.602754 1.99653e-20)
(0.0993374 -0.897145 -1.74701e-19)
(-0.00111724 -0.943431 0)
(0.0385117 -0.670077 -1.6907e-20)
(1.16045 0.05776 -3.91995e-20)
(1.15529 0.198462 -9.86543e-20)
(0.0329085 -0.995151 3.71586e-20)
(-0.00635633 -0.978423 -1.5294e-19)
(0.0297526 -0.968508 -5.23725e-20)
(-0.0571668 -0.97387 -6.42191e-20)
(-0.10638 -0.923958 1.85223e-19)
(0.0396935 0.0324413 -4.31963e-20)
(-0.0143388 0.893861 0)
(0.0728953 0.951308 -8.332e-21)
(-0.0368817 -0.880335 1.41992e-19)
(-0.00685233 -1.04721 1.7141e-19)
(-0.0305355 0.743048 1.74761e-20)
(-0.0267652 0.926946 -7.1256e-22)
(0.0131569 0.928882 3.93225e-21)
(0.0468252 0.291357 2.27627e-20)
(-0.028394 1.02286 1.16794e-20)
(-0.0166234 -0.899762 -8.81183e-20)
(-0.014162 0.827482 0)
(0.0241336 0.936018 -1.23371e-20)
(0.038195 0.91452 0)
(-0.0169192 -0.886629 4.72464e-20)
(-0.0669561 -0.943747 -2.43773e-21)
(0.0716547 -0.931586 1.03882e-19)
(0.370323 -0.874255 0)
(0.140464 0.931379 3.0736e-20)
(0.0112008 -0.955694 -5.76026e-20)
(-0.00909784 0.80872 7.30655e-23)
(-0.0370958 0.766956 -5.53834e-21)
(-0.00283348 -0.88448 0)
(-0.0621554 0.843097 -1.17915e-20)
(-0.254411 -0.681413 1.71351e-19)
(-0.0845298 -0.839809 -5.40286e-20)
(0.124765 -0.883964 -6.23648e-20)
(-0.0563249 0.878846 7.68197e-21)
(0.0200559 0.928361 -8.53003e-21)
(-0.064479 -0.892736 0)
(-0.0292644 -0.926731 2.37046e-20)
(0.0496427 -0.907418 5.98121e-20)
(0.483985 -0.559619 1.58021e-19)
(0.000742067 -1.07001 1.69887e-19)
(0.17739 -0.176935 -4.19214e-20)
(0.308819 -0.658565 4.24768e-20)
(0.921891 -0.0501868 0)
(0.0157915 0.926068 1.7062e-21)
(1.3828 -0.0446226 4.21902e-20)
(-0.0223517 0.90955 -1.51069e-21)
(-0.009134 0.883293 -6.17651e-21)
(0.288614 -0.66593 0)
(0.968082 -0.660185 0)
(0.470139 1.11258 -3.03414e-20)
(-0.0296889 -0.970783 0)
(0.0369693 -0.839846 8.99167e-20)
(0.19219 0.606781 0)
(-0.191373 0.97799 0)
(0.722964 -0.279098 0)
(1.12217 0.179968 -9.81155e-20)
(0.0506054 0.892433 -1.0702e-20)
(0.120111 0.666851 -6.1129e-22)
(-0.0245237 -0.90466 -2.15195e-20)
(0.102483 -0.991787 -7.08702e-20)
(-0.0443033 -0.955163 5.00664e-21)
(0.0587701 -0.0028999 1.64275e-20)
(0.00938548 0.869844 6.319e-21)
(0.10345 0.647134 0)
(-0.0229469 -0.787484 0)
(-0.0575138 0.864805 -1.5736e-20)
(-0.00083651 0.919713 7.08212e-21)
(-0.00539241 -0.953022 0)
(1.09137 0.777762 3.51238e-20)
(0.0587358 0.923056 1.72469e-21)
(-0.0406671 -1.00931 -6.61658e-20)
(-0.0319918 -0.962702 0)
(-0.0542479 0.938557 0)
(0.0345578 -0.973828 -1.88823e-19)
(0.326108 -0.967422 1.41701e-19)
(0.701057 0.700939 -3.37602e-20)
(0.525145 0.711653 0)
(0.137927 0.853412 -3.56536e-20)
(-0.12942 0.969911 9.40816e-22)
(0.387006 -0.92498 -4.626e-20)
(-0.00661425 0.888013 -5.17916e-21)
(-0.0546675 0.919863 -2.22683e-21)
(0.072361 0.14809 0)
(1.33126 0.664908 0)
(1.32857 0.657528 -3.20167e-21)
(0.484725 0.370882 4.76012e-22)
(-0.0208563 -0.994851 -6.40083e-20)
(0.048966 0.897581 -2.07157e-20)
(0.857334 -0.688808 0)
(0.0175485 -0.964908 -1.19162e-19)
(-0.0800691 -0.883336 -3.15356e-20)
(0.0511225 0.118745 -8.74467e-21)
(0.646117 1.07187 -2.00959e-20)
(-0.0592135 0.927249 0)
(-0.0031238 -0.814354 -5.40635e-20)
(0.223731 -0.661396 -3.14638e-22)
(0.0235573 -0.942406 -1.16896e-19)
(-0.0872712 -0.984066 -3.67397e-20)
(0.297641 0.229018 2.31262e-20)
(1.25 0.539751 -6.20788e-20)
(0.293132 -0.842834 8.14393e-20)
(0.10459 -1.04221 0)
(0.414955 0.216878 2.09319e-20)
(1.24573 0.875007 2.95993e-20)
(1.385 0.53958 4.14129e-20)
(-0.033793 -0.958479 7.09286e-20)
(-0.0071375 -0.780551 -2.30687e-19)
(0.121476 0.262363 -2.41619e-20)
(0.0471335 0.892324 0)
(0.133801 0.705018 6.6953e-21)
(-0.0547314 0.920874 -3.20167e-20)
(-0.012751 0.827596 2.8073e-20)
(0.0544396 0.88712 -3.98205e-21)
(0.777128 -0.222756 1.29263e-19)
(0.225204 -0.720254 -1.08608e-19)
(0.0602401 -0.944972 5.98646e-20)
(0.29884 -0.849361 1.13075e-19)
(1.28657 0.139722 0)
(0.135581 0.10024 -2.23074e-20)
(0.0600191 -0.954009 9.69375e-20)
(0.00130155 -0.703046 1.03264e-20)
(0.677046 -0.869729 -5.38531e-20)
(0.183605 0.692204 1.01801e-20)
(-0.0870664 -1.05451 0)
(1.38395 -0.307547 0)
(1.25251 0.811571 3.41797e-20)
(1.11159 -0.522348 7.76049e-20)
(-0.0136317 0.85964 1.46792e-20)
(0.00397253 -0.915857 -1.90513e-19)
(1.07494 -0.730632 8.69095e-20)
(-0.0148024 0.878012 3.60679e-21)
(-0.176443 0.850532 8.29108e-21)
(0.0438363 0.772095 2.08247e-23)
(0.0834603 -1.01009 1.16046e-19)
(0.00038629 0.890498 0)
(0.177003 0.0718158 9.36107e-21)
(0.0586248 0.98499 1.51126e-20)
(-0.0304676 -0.96025 7.58169e-20)
(0.0178783 -0.988752 0)
(0.959045 0.699624 2.3655e-21)
(0.142997 0.101128 2.01808e-20)
(0.0264932 0.0344715 2.91344e-20)
(-0.0703513 0.872308 2.25275e-20)
(0.425163 -0.644292 0)
(-0.152301 0.980436 -7.79769e-21)
(-0.00856854 -0.878758 7.26474e-20)
(0.0799095 -0.955575 0)
(0.158118 0.0528989 2.76496e-20)
(0.0334983 -1.04406 5.45254e-20)
(-0.0882063 -0.939322 0)
(0.0164462 0.941683 -1.73659e-21)
(1.24086 0.0518564 2.63268e-20)
(-0.0741273 -0.972441 1.16315e-19)
(-0.0225788 -0.954446 1.70743e-19)
(1.02829 0.124278 -4.12591e-20)
(1.16194 0.126081 -4.59469e-20)
(-0.032833 0.913884 3.14696e-21)
(-0.247077 -1.0414 0)
(-0.00775183 0.935712 -1.22491e-21)
(-0.114215 -0.91143 -8.58905e-21)
(-0.135265 1.01863 0)
(0.0576531 0.970019 9.99517e-23)
(1.06101 0.088973 9.59648e-20)
(0.164411 -0.1766 2.69214e-20)
(1.14652 0.198806 1.94541e-20)
(-0.0825769 -0.973097 -5.43542e-21)
(-0.0355201 0.91556 4.69238e-21)
(-0.0100945 -0.95887 0)
(0.409867 0.635693 2.26446e-20)
(-0.00403496 0.939414 1.94158e-22)
(0.0414051 -0.928229 5.23095e-20)
(0.0903189 0.923638 1.52275e-20)
(-0.0106636 0.894034 0)
(0.0490479 -0.839723 5.31091e-20)
(0.0614754 -0.87497 0)
(0.412492 0.390766 -2.37779e-20)
(0.199139 -0.0402706 0)
(0.394794 0.384412 2.40002e-20)
(0.113705 0.220442 -1.61961e-20)
(-0.043471 -0.919039 1.67316e-20)
(-0.00205422 -0.909896 -9.04879e-20)
(1.11823 0.0403741 -5.56178e-22)
(-0.0823041 0.84058 0)
(0.0146001 0.896 -1.70402e-20)
(-0.0548291 -0.995381 -3.74425e-20)
(0.0435376 0.837932 -1.21692e-20)
(0.459646 0.954752 1.9855e-20)
(0.0775935 0.931758 0)
(0.0373296 -0.969599 -1.23154e-23)
(0.0959486 1.04219 -8.2284e-22)
(-0.137699 0.859311 0)
(0.506738 -0.506704 0)
(0.0256398 0.962849 1.62607e-20)
(0.0635534 -0.945309 1.29596e-19)
(0.0179797 0.899859 1.10264e-20)
(0.0511365 0.914268 1.33591e-20)
(-0.0318961 0.936012 -3.93964e-20)
(0.00342084 -0.942956 3.28281e-20)
(0.791835 -0.34854 -5.53985e-20)
(-0.132163 0.875715 -6.29911e-21)
(0.718306 0.865796 2.13715e-20)
(0.0320287 0.0246258 7.0012e-20)
(0.0138986 0.930851 1.46595e-23)
(0.0625555 0.747564 0)
(0.0817358 0.845395 4.6931e-21)
(-0.0404131 0.908665 6.49567e-21)
(0.0465316 0.92167 -1.2738e-20)
(-0.0614387 -0.879719 -3.43396e-20)
(0.716047 0.81865 0)
(0.0641326 0.224343 0)
(0.791352 0.919148 3.34606e-20)
(0.608418 -0.766338 4.77006e-20)
(-0.00311456 -0.965806 0)
(0.0948995 0.778986 -9.04977e-21)
(0.0104202 -1.06802 0)
(1.17973 -0.438341 5.18004e-21)
(-0.107529 -1.04317 0)
(0.0641898 -0.896868 -6.37771e-20)
(-0.0228184 0.859164 9.42352e-21)
(0.281362 -0.87854 3.60769e-20)
(1.01248 0.816446 -1.1899e-20)
(-0.0149776 0.874923 6.12698e-22)
(0.274539 0.133265 0)
(0.441488 -0.714861 -6.0146e-20)
(0.0326863 -0.850385 -7.72744e-20)
(0.100137 0.838767 2.53911e-20)
(0.0271876 -0.987752 0)
(0.478263 -0.863555 -1.42642e-20)
(0.0246537 0.936178 2.22259e-20)
(0.0993028 -0.917621 -7.71721e-20)
(-0.00733241 -0.942851 0)
(0.0316343 0.870197 0)
(0.216563 -1.1464 3.78227e-20)
(0.0266716 0.906474 0)
(-0.148415 -0.870023 1.89114e-20)
(0.179433 -0.995798 -1.07408e-19)
(0.00116101 0.901052 -2.15873e-20)
(0.1924 -1.06765 8.07737e-20)
(-0.0904643 1.09993 -2.79207e-21)
(0.0422366 -0.0236051 0)
(0.0518912 0.890799 0)
(0.419058 -0.282536 4.61287e-20)
(0.0580938 -0.0207349 0)
(0.0798991 0.799157 -1.89501e-20)
(0.0134982 1.0846 -1.55278e-21)
(0.111499 0.135358 0)
(0.0185814 1.0111 7.29946e-21)
(1.09839 1.05909 5.7529e-20)
(0.419478 0.872304 5.98723e-20)
(1.53406 0.279575 0)
(1.14758 0.956204 0)
(0.0118827 0.821347 8.70512e-21)
(-0.0663334 -0.909913 -4.79955e-22)
(-0.0713682 0.718293 3.51454e-22)
(-0.061462 0.871355 -2.70282e-21)
(0.0966744 0.855907 0)
(0.0740894 -0.0162972 3.61737e-20)
(0.00151208 0.796211 0)
(-0.0258617 0.919701 0)
(1.21321 0.0795027 -1.05756e-19)
(-0.0227573 -0.962179 0)
(-0.00325986 0.823053 1.25757e-20)
(0.0507842 0.761778 0)
(0.0069222 -0.917786 1.35686e-19)
(0.11727 0.107236 0)
(1.00506 0.528536 -2.61131e-20)
(0.285005 0.608254 -9.49031e-21)
(1.08772 -0.610025 -1.12084e-20)
(1.01761 0.717741 9.52781e-22)
(0.607987 -0.929122 -5.38252e-20)
(0.54262 0.951418 0)
(0.421275 -0.656749 0)
(0.519408 -0.439688 6.1123e-20)
(0.230768 -0.935157 0)
(0.87053 0.84577 -5.81369e-20)
(0.752911 -0.130513 -9.04454e-20)
(1.02032 0.307562 -4.04788e-20)
(0.0873714 0.862085 -1.65749e-20)
(0.0185168 -0.192234 -2.15479e-20)
(0.00232364 0.859849 5.31406e-21)
(0.0752615 -0.97698 8.6739e-20)
(0.30692 -0.70459 -6.29331e-20)
(-0.0024677 -0.985095 1.8069e-19)
(0.084964 0.730939 2.33476e-20)
(0.0978672 -0.654723 5.74119e-20)
(0.046558 -0.926057 0)
(0.198376 0.00767577 4.12028e-20)
(-0.0402569 -0.891452 -1.72656e-19)
(-0.0864313 -0.872015 0)
(0.014801 -0.889003 5.06375e-20)
(1.01156 0.0545757 -4.42485e-20)
(0.0616011 -0.0849584 0)
(0.100354 -0.702801 -3.27915e-20)
(-0.037507 -0.923825 -1.04779e-19)
(0.00151026 0.675446 3.81645e-20)
(-0.0477851 0.907076 -1.59876e-20)
(0.150053 -0.0299805 4.04681e-20)
(0.00845923 0.861614 0)
(-0.0114808 -0.969399 -1.63864e-22)
(0.0194923 -0.922215 0)
(-0.0196699 0.851256 0)
(0.491557 -0.548402 -2.86038e-20)
(0.228356 -0.553332 1.15729e-19)
(0.939246 0.975546 0)
(1.18494 -0.0649823 -5.49144e-20)
(0.0374001 1.11031 -5.46581e-22)
(0.0247934 0.937172 -7.27368e-21)
(0.0286046 0.15015 -3.72674e-20)
(0.709717 -0.462299 -1.05756e-19)
(0.0704694 -0.952294 0)
(0.229671 -0.874434 -3.56733e-20)
(0.0146791 0.0737119 -1.96177e-20)
(0.0566835 0.803456 0)
(0.00694891 -0.982735 -6.66781e-20)
(0.146096 -1.00552 -7.94885e-22)
(-0.00679439 -0.976144 -4.31595e-20)
(0.0758322 -0.874334 -3.86507e-20)
(-0.0349934 0.871141 1.0645e-20)
(0.0385512 0.882721 6.72087e-21)
(0.270973 -1.1773 -6.02844e-20)
(-0.0366067 -1.01006 4.50292e-20)
(0.0471805 0.00127499 -3.80074e-20)
(-0.0516831 0.874428 0)
(0.0245461 0.00652656 3.26278e-20)
(-0.00246944 -0.902982 3.15502e-20)
(0.498767 -0.80287 0)
(0.0642943 -1.03125 -3.13172e-20)
(0.0852323 0.857103 7.636e-21)
(1.42201 -0.041982 3.05717e-20)
(-0.0780473 0.946007 -4.91732e-21)
(0.0169674 0.96544 -2.29759e-20)
(0.063361 0.907503 2.18933e-20)
(-0.0480333 -0.994127 -1.35969e-19)
(0.285868 0.15331 0)
(-0.113028 -0.916764 -1.41127e-19)
(0.152807 0.0149722 2.14533e-20)
(-0.000996222 -0.907029 0)
(0.516281 -0.380633 5.93793e-20)
(0.51954 -0.320262 -4.4682e-20)
(1.01422 -0.0136676 0)
(0.0433413 0.945408 1.31574e-20)
(0.601246 -0.995562 6.14423e-20)
(0.0490307 -0.867346 -1.18378e-19)
(0.0996248 -0.943805 0)
(-0.0176096 -0.995969 -8.64241e-20)
(1.50809 -0.0638985 0)
(0.22333 -0.211601 3.69747e-20)
(0.0429006 0.977165 1.57599e-20)
(-0.0142578 0.895122 0)
(0.0382982 0.984764 0)
(0.0733841 0.932463 -9.65931e-21)
(-0.0458345 -1.01364 -1.51565e-22)
(0.446712 -0.793662 0)
(-0.061164 0.851572 0)
(0.0442287 -0.943578 -7.05735e-20)
(0.133071 0.032355 0)
(0.116704 0.698903 -4.72889e-20)
(0.0187366 -0.986778 -2.01251e-19)
(-0.0230786 -0.977723 1.74429e-20)
(1.24326 0.460885 0)
(0.114813 0.0152903 0)
(-0.0776447 -1.06587 1.12095e-19)
(0.0554727 0.960735 -5.10529e-21)
(-0.0255808 -0.963614 1.26727e-19)
(0.811022 0.580232 3.24275e-20)
(0.322194 -0.736626 0)
(-0.00240562 -0.907581 0)
(0.0241661 0.952365 0)
(-0.0213736 0.879526 -1.78115e-21)
(0.709468 -0.661454 -1.2868e-20)
(-0.0464192 0.884069 0)
(0.0470336 0.36796 0)
(1.11821 -0.00352168 -5.41619e-20)
(0.0295879 -0.949394 -1.32005e-19)
(-0.151525 -0.968381 1.31238e-19)
(0.0377112 -0.924136 0)
(0.0369557 0.380293 -2.18814e-20)
(0.0271607 1.03652 0)
(1.01738 0.00305129 1.10271e-19)
(0.101841 0.00539812 -3.29577e-21)
(0.00982533 0.0069991 1.04514e-20)
(-0.00407773 -0.910361 1.2288e-19)
(0.552233 -0.494791 1.21527e-19)
(0.0384716 0.305967 -2.4722e-20)
(-0.0404423 0.913633 -1.93273e-22)
(0.899146 -0.319552 1.0172e-19)
(0.627289 0.826949 1.23149e-20)
(1.0209 -0.0231195 5.11976e-20)
(0.0221641 0.742346 -1.22299e-21)
(-0.0238143 0.737891 -2.60331e-20)
(0.0547249 -1.0583 -1.93842e-19)
(-0.151377 0.902552 0)
(0.362274 -0.477917 1.55572e-19)
(-0.0300893 0.843436 -1.61936e-20)
(-0.0156474 0.831153 6.03289e-22)
(0.0595959 -0.992894 7.28316e-20)
(0.0448152 0.978169 -1.22046e-20)
(1.4169 -0.629399 8.32989e-20)
(0.133444 0.0776958 0)
(0.0298147 -0.937806 -1.58649e-22)
(-0.0343451 -0.97323 -3.99496e-20)
(0.0169427 -0.91952 0)
(0.536635 0.765387 1.11717e-20)
(0.0145833 -0.925849 -5.55826e-20)
(0.731513 0.879053 0)
(0.00635527 -0.941173 0)
(0.0272962 0.748784 0)
(0.0976867 -0.963738 7.73356e-20)
(0.241228 -0.933798 3.20599e-20)
(-0.0507108 -0.963602 3.56205e-22)
(0.0160206 0.978049 0)
(0.0193352 0.00361174 7.84089e-22)
(0.731034 -0.559863 1.07522e-19)
(1.01268 0.0648136 5.3641e-20)
(1.3245 0.167775 -5.57656e-20)
(0.0316777 -0.906812 3.28668e-22)
(-0.0545183 1.00077 0)
(-0.0999006 -0.900063 0)
(0.0806068 -0.985562 -4.44354e-20)
(-0.0361005 0.880162 0)
(0.330534 -0.557747 5.87508e-20)
(-0.0111065 -0.922487 -1.56182e-20)
(0.873858 0.57277 -1.88933e-20)
(-0.0112844 0.997779 0)
(-0.0538876 -0.980315 6.02936e-20)
(0.230195 0.886657 1.36089e-20)
(-0.0757312 -0.922909 1.50696e-19)
(0.0783131 -1.02231 -1.32257e-19)
(0.0382605 0.869719 0)
(0.0507998 0.00347065 1.95438e-20)
(0.0429377 -0.95878 0)
(0.20347 -0.667524 -5.96862e-20)
(0.0591317 -0.904703 0)
(-0.104912 -0.912493 7.25356e-22)
(0.0820007 0.890319 -1.20288e-20)
(0.0589367 -0.928513 -3.33222e-20)
(1.13542 -0.233989 8.86616e-20)
(0.0965875 -0.891226 -7.72384e-20)
(0.0254021 -0.997985 7.002e-20)
(-0.0140403 0.842892 3.1702e-20)
(1.12984 -0.107958 0)
(0.715574 -0.341403 -5.996e-20)
(-0.0402977 0.989714 -8.62325e-21)
(0.0182582 -1.0124 5.3433e-21)
(-0.0690564 0.987306 0)
(-0.0742348 -0.932807 -1.58121e-19)
(0.00678657 -0.976267 8.63965e-20)
(0.0200916 0.255789 -1.47249e-22)
(1.19682 0.358831 -4.88034e-20)
(-0.0732913 -0.998535 -8.30266e-21)
(0.0190769 -0.965854 -6.47908e-20)
(1.01217 0.119955 -8.29979e-20)
(-0.0760768 0.915807 0)
(0.51601 -0.452465 0)
(0.0852364 0.675141 6.45585e-20)
(0.0275768 0.896888 -1.17317e-20)
(-0.261147 -0.72293 0)
(1.09668 0.672074 5.72355e-20)
(0.0241985 0.904249 -1.98297e-20)
(0.0549037 0.818191 2.8307e-20)
(0.0251444 0.763179 0)
(-0.0147575 0.997026 -1.30715e-20)
(0.00541633 0.908396 5.90327e-21)
(0.571325 -0.72338 9.6366e-20)
(-0.0654152 -0.939131 6.32617e-20)
(1.27854 0.410204 0)
(0.1265 -0.935906 5.32223e-20)
(0.116967 -1.04751 0)
(0.011752 -0.836987 0)
(0.364629 0.589912 0)
(0.0318461 -0.882 0)
(0.635977 -0.575221 -9.31538e-20)
(1.09187 0.12975 -4.4961e-20)
(0.375988 0.328521 0)
(0.617131 -0.323576 -4.48251e-20)
(-0.017847 0.855714 -2.7691e-20)
(0.366511 -0.629463 -3.16758e-20)
(-0.019615 0.850805 0)
(0.358357 0.516714 4.18185e-20)
(1.48243 0.300761 -3.73702e-20)
(-0.0457163 0.88506 1.08514e-20)
(0.0195473 0.962579 -1.59377e-20)
(-0.0102448 0.937221 6.36776e-23)
(-0.0796795 0.926662 0)
(-0.0376714 -0.906504 0)
(0.0168087 0.964394 1.69206e-20)
(0.540241 -0.46097 4.34283e-20)
(0.0658817 0.938395 2.4107e-22)
(0.602318 -0.827342 0)
(0.0205608 -1.01329 1.33865e-19)
(0.565554 0.994097 9.67233e-21)
(0.920954 0.804366 5.49138e-20)
(-0.0548853 -0.908412 1.85486e-20)
(0.0166114 -0.878832 -6.41666e-20)
(1.40587 0.509779 0)
(0.108604 -0.99059 5.32449e-20)
(0.0113147 -0.945956 1.61024e-20)
(1.00924 1.06966 3.41725e-20)
(0.250328 0.724625 3.67577e-20)
(1.15018 1.04775 2.18274e-20)
(-0.0954214 -0.968199 -5.97453e-21)
(0.117302 -0.943702 -3.00154e-20)
(0.150856 0.595675 8.86507e-21)
(0.0203211 0.849085 5.61638e-22)
(0.0920066 0.994719 -1.2843e-20)
(1.04803 0.428484 0)
(0.618261 0.0798641 4.10985e-20)
(-0.0222042 0.851272 0)
(-0.0984553 -0.971708 -1.13715e-19)
(0.659739 -1.01595 0)
(0.303337 0.636205 -2.04043e-20)
(0.997768 1.08878 -3.27783e-22)
(0.268727 -0.0973106 -3.53227e-20)
(0.556322 -0.421352 0)
(1.05339 0.231237 1.10214e-19)
(-0.0563372 0.882065 -1.49688e-21)
(-0.0224723 -0.982796 2.15373e-20)
(1.099 0.139446 -6.95988e-20)
(0.0539287 -0.120823 3.6494e-20)
(0.0801997 0.520784 0)
(-0.250238 0.778612 -6.15547e-22)
(0.0474465 -0.988932 0)
(1.29862 0.500695 -2.65712e-20)
(-0.0275868 -0.966012 -1.96946e-21)
(-0.127485 -0.847524 -1.51509e-20)
(0.0172686 -0.968462 7.01375e-20)
(-0.0144388 0.924203 -1.41117e-20)
(0.763421 0.356344 2.39905e-20)
(1.17852 0.673282 -5.73029e-20)
(0.0281558 -0.0014079 0)
(0.00431687 -0.940755 0)
(0.0783079 -1.05439 -7.79689e-20)
(1.04826 0.547093 -3.74017e-20)
(0.0765592 0.985785 -9.07995e-21)
(0.0243353 -0.917771 5.97148e-20)
(-0.0218225 0.953015 0)
(1.01022 0.174438 0)
(0.0430093 -0.921571 -3.21862e-20)
(0.039268 0.914211 0)
(1.16393 0.722668 1.21479e-21)
(0.0654263 1.01072 -1.46303e-20)
(-0.0139338 -0.960163 2.84651e-20)
(0.0320678 0.82372 0)
(1.43653 0.310034 6.51701e-20)
(-0.00623726 0.830947 -1.54093e-20)
(0.692369 0.402017 -1.23072e-20)
(1.0398 0.998209 -2.02319e-21)
(0.114992 0.993919 1.6099e-20)
(0.115691 1.01208 1.97368e-20)
(0.00900637 0.924372 3.9351e-21)
(0.10251 -0.724145 -6.11556e-20)
(0.0551459 -0.8102 0)
(0.236052 -0.0733314 -3.62467e-20)
(0.0730939 0.77319 0)
(0.0126493 -0.966537 1.15455e-19)
(-0.0326762 0.819424 -2.74582e-20)
(0.371907 -0.474668 -4.97755e-20)
(0.157294 -1.00282 -1.84039e-19)
(0.340166 -0.433854 -5.50198e-20)
(0.0919056 -0.978671 6.3173e-21)
(0.0156622 -0.961839 -6.35487e-20)
(0.013592 -1.00222 -9.86073e-23)
(0.0064874 -0.954186 6.94735e-20)
(0.0401897 -0.95722 1.38155e-19)
(-0.00214093 0.872958 -1.49572e-20)
(-0.000907224 0.880159 -3.3306e-21)
(0.13932 -0.876887 0)
(-0.0948935 0.944374 -2.23456e-20)
(0.075199 -0.946058 -8.71662e-20)
(0.173041 -0.148089 4.94176e-20)
(0.318913 -0.103279 3.40452e-20)
(0.527023 -0.485064 -5.95116e-20)
(0.0558781 0.575528 -4.29457e-20)
(0.252756 0.323505 1.19831e-20)
(0.631962 -0.374835 8.62563e-20)
(0.00999716 -0.931301 8.23464e-20)
(1.16396 -0.00618914 -1.20556e-19)
(-0.0210535 0.916455 -3.19597e-21)
(0.0269193 -1.00473 1.76243e-20)
(0.821326 -0.322509 7.10528e-20)
(1.22873 0.773864 0)
(0.0199551 0.996685 0)
(0.0159598 0.905459 0)
(0.0522479 0.0297731 2.73184e-20)
(1.18639 0.264223 4.33152e-20)
(-0.00780689 -0.919059 0)
(-0.0927471 -0.94708 5.21304e-20)
(0.0102434 -0.953378 -7.59728e-20)
(0.491011 -0.406855 0)
(-0.109011 -0.87289 -6.35922e-20)
(0.0320976 -0.881638 -1.37514e-19)
(-0.00183959 -0.936777 1.41269e-19)
(0.647519 -0.860537 -1.10069e-19)
(-0.0952684 0.900666 0)
(0.117023 -1.06834 5.78311e-21)
(-0.0322645 -0.997688 -7.64502e-20)
(0.0591172 0.704441 5.37154e-20)
(1.06063 0.581042 -2.91619e-20)
(0.167779 0.0886015 -2.45624e-20)
(-0.0360019 -0.835741 -1.14718e-19)
(1.09581 0.0772816 -6.0212e-20)
(-0.053785 -0.937537 0)
(-0.00289137 -0.915091 0)
(0.602186 -0.0509327 0)
(0.0810425 -0.882801 -5.99929e-20)
(0.0127892 0.896231 1.06208e-20)
(0.022968 0.843363 -3.81449e-20)
(-0.0366549 -0.952968 0)
(-0.0275082 0.968845 4.69937e-22)
(1.1293 0.535799 -5.46379e-20)
(0.0721338 0.921245 1.91798e-20)
(1.14311 -0.0875723 0)
(-0.0134703 -0.858127 -8.22367e-20)
(1.12083 0.438965 -1.73074e-20)
(0.082139 0.820051 -3.10126e-20)
(0.174562 0.68359 -4.18146e-20)
(1.10851 -0.25307 0)
(-0.0507713 0.914251 0)
(-0.0685863 -0.837044 1.09396e-19)
(-0.0327552 0.898513 2.64754e-21)
(0.550318 1.17637 0)
(0.20234 0.260446 -1.41127e-20)
(-0.0817747 -0.791036 1.19551e-19)
(-0.0233279 -0.951882 -8.94814e-20)
(0.112181 1.03257 0)
(-0.0721008 -0.90831 0)