/*--------------------------------*- C++ -*----------------------------------*\
  =========                 |
  \\      /  F ield         | OpenFOAM: The Open Source CFD Toolbox
   \\    /   O peration     | Website:  https://openfoam.org
    \\  /    A nd           | Version:  9
     \\/     M anipulation  |
\*---------------------------------------------------------------------------*/
FoamFile
{
    format      ascii;
    class       volScalarField;
    location    "0.1";
    object      p;
}
// * * * * * * * * * * * * * * * * * * * * * * * * * * * * * * * * * * * * * //

dimensions      [0 2 -2 0 0 0 0];

internalField   nonuniform List<scalar> 
97292
(
-3.72684
-0.129966
-4.13961
-4.0539
-4.08125
0.0802187
-3.53375
0.157743
-1.06874
-3.59835
-3.24069
-3.28806
-4.09291
-3.6213
-3.6801
-4.38953
0.00886408
-0.952129
-2.49581
-4.12564
-0.509974
-0.338096
-0.0343827
-0.0170956
-0.45873
-0.91135
-0.312884
0.0693331
-0.338993
-0.171373
-0.980382
-1.02799
-0.599916
-2.52282
-3.39015
-2.22001
-1.23454
-1.6394
-1.01526
-2.3608
-0.104113
-0.318177
-1.01546
-4.26316
-0.782025
-2.70909
-2.90404
-0.763009
-0.591744
-0.0731045
-4.00266
-2.54816
-0.979186
-3.9519
-2.84894
-2.95243
-1.93147
-0.729284
-3.67551
-2.48954
-3.9133
-2.78119
-0.0825856
-0.404889
-4.0973
-3.30522
-3.77044
-3.75592
-0.446084
-1.14871
-0.336319
-3.96085
-2.85204
-3.50366
-1.19842
-3.66586
-2.40647
-0.0867226
-0.0806712
-3.23102
-0.219072
-3.21005
-4.01155
-0.415504
-3.65108
-3.12532
-1.07868
-0.157295
-2.59244
-1.53638
-1.20039
-3.99789
-1.09973
-1.13158
0.152135
-0.873991
-4.52551
-3.65359
-0.596112
-2.70001
-2.59446
-1.02932
-3.05654
-1.0392
-0.428823
-1.1962
-0.583242
-2.36264
-3.85601
-1.57356
-2.70465
-3.27732
-0.43253
-2.45706
-4.45264
-4.03653
-0.00104174
-3.94692
-0.135117
-2.98253
-0.282578
-4.48679
-0.324795
-1.0072
-3.97945
-0.926692
-1.04036
-3.67389
-2.90779
-0.902981
-1.87525
-0.463036
-0.619057
-0.0456784
-2.92523
-4.18857
-0.655836
-2.50399
-0.965035
-1.10222
-3.72422
-0.53821
-3.73008
-2.01237
-3.79402
-1.92392
-3.43466
-0.51545
-2.56117
0.0414932
-3.20735
-4.05197
-4.51914
-3.54296
-3.88894
-1.24837
-3.70301
-0.0172092
-0.232566
-1.14618
-3.70734
-0.412487
-0.519372
-1.18394
-1.13124
-4.05839
-4.37777
-1.18997
-3.7465
-0.852904
-2.55263
-1.94465
-4.11598
-2.86111
-0.492387
-2.56201
-3.20619
-2.63202
-1.69118
-1.98492
-3.64303
-2.81797
-1.19213
-0.100254
-4.44172
-3.61076
-1.22055
-3.63923
-4.30672
-3.28935
-2.85164
-3.94805
-0.505268
-1.13643
-4.32897
-1.57687
-0.321624
-0.0510405
-4.44194
-2.80353
-2.62953
-1.51438
-4.06839
-3.99851
-4.18897
-3.83883
-2.84961
-4.15946
-2.78625
-2.5662
-0.608734
-0.753656
0.0678509
-3.68592
-1.72322
-4.47354
-0.310575
-3.08468
-0.30416
-0.381522
-1.1497
-0.491378
-0.42713
-2.65009
-2.72206
-0.369247
-4.55489
-3.82766
-0.0572144
-2.56971
-0.49111
-3.69235
-4.36139
-2.7258
-2.46627
-0.871894
-1.46509
-0.83621
-1.10987
-1.46139
-3.67172
-4.20675
-3.91663
-0.0154746
-3.99281
-2.74592
-3.07345
-3.5506
-0.909092
-3.53809
-3.99287
-0.0123115
-1.06446
-3.99711
-3.52258
-3.26548
-0.00530424
-0.924362
-3.08424
-0.356532
-3.89823
-0.300526
-0.359362
-2.74484
-1.2133
-3.89756
-3.99377
-3.48047
-4.10189
-4.11128
-0.100481
-1.31105
-0.062171
-3.65376
-4.18297
-3.03528
-2.69366
-3.61695
-0.0690655
-2.31412
-2.98867
-1.67905
-0.25354
-1.03451
-0.993208
-0.377483
-0.308042
-0.217333
-0.248506
0.0759048
0.204537
-2.53439
-0.582544
-1.1839
-2.9985
-3.57262
-4.51879
-3.57127
-4.29004
-0.914977
-2.52787
-3.87477
-0.973776
-3.44755
-0.198209
-3.09236
-0.261
-0.928785
-0.52164
-0.84574
-0.102806
-0.819514
-0.89145
-1.1613
-2.56499
-1.09379
-2.99983
-0.342758
-0.992085
-0.427261
-3.31036
-2.76999
-1.15845
-3.06778
-4.23697
-4.06596
-3.15487
-2.7652
-2.87401
-4.04434
-3.80686
-3.70092
-3.45022
-4.5547
-1.08419
-0.337462
-0.152774
-3.28737
-3.95631
-0.924495
-0.0443156
-0.104431
-0.973303
-0.24055
-3.57051
-0.462383
-0.326559
-0.385122
-3.83516
-3.56925
-3.52876
-4.17473
-0.940333
-3.89102
-0.0692367
-0.571696
-3.56548
-0.727706
-3.99354
-4.14681
-4.27007
-0.485274
-0.760147
-4.31448
-3.73748
-3.60963
-2.91703
-4.22433
-1.3034
-3.02138
-2.43501
-0.34661
-2.76556
-0.230136
-0.743117
-2.9825
-3.04072
-1.46544
-3.8166
-3.31491
-0.747402
0.0912871
-2.39968
-2.87956
-0.716255
-0.917353
-3.86062
-4.26614
-3.55307
-1.14654
-0.405684
-0.709665
-3.43312
-0.0481677
-0.177601
-3.64582
-2.18295
-0.0222607
-3.91941
-3.85663
0.120588
-3.64603
-3.0904
-1.48778
-1.16687
-0.76402
-0.0591745
-3.11799
-0.341128
-0.337809
-1.07619
-2.4481
-2.38393
-0.983443
-4.4482
-0.196703
-3.01286
-4.25306
-4.51573
-1.04103
-1.33706
-0.0274041
-3.52663
-2.86489
-3.96412
-3.58705
-1.03688
-2.79658
-3.26859
-3.78576
-0.996719
-2.03523
-2.56291
-4.45512
-4.59743
-1.03173
-0.511656
-0.896373
-0.164397
-0.163599
0.0475008
-2.69035
-3.02522
-4.19154
-3.38288
-2.85553
-1.03087
-3.7903
-4.07579
-3.01913
-0.971103
-4.10289
-2.96562
-2.10236
-3.00731
-0.476821
-3.82284
-2.86379
0.0706253
-0.174666
-0.0448469
-3.80947
-0.590021
-1.00737
-0.448209
-3.78482
-3.62036
-1.84474
-1.07876
-1.09264
-0.303823
-2.83671
-0.0304517
-3.78366
-4.01357
-1.04043
-3.82805
-3.83084
-0.346515
-2.43634
-3.50654
-3.68467
-2.26324
-2.78872
0.010772
-4.24914
-0.167901
-3.86021
-0.136982
-0.22216
-2.43654
-1.35297
-2.6369
-4.62819
-0.377996
-3.58228
-1.03393
-0.498602
-3.57408
0.0267096
-0.576471
-3.57909
-3.46631
-1.1103
-1.12916
-1.127
-1.05104
-3.79569
-3.74935
-2.525
-0.380345
-0.916953
-4.67437
-0.573885
-1.21153
-0.322755
-4.20897
0.174386
-1.00399
-2.58135
-0.466314
-4.20998
-0.405042
-0.253767
-0.40871
-4.57136
-2.49236
-0.148035
-1.25989
-1.07895
-0.49564
0.0739636
-0.227777
-0.305539
-0.42035
-4.61411
-1.74508
-1.0957
-1.38872
-2.83273
-3.70652
-0.32927
-3.73111
-3.02957
-3.80365
-3.64405
-0.397679
-3.49323
-1.70115
-0.525886
-1.09083
-3.11705
-3.8279
-0.162862
-4.04536
-3.27033
-0.588854
-4.64835
-4.19546
-0.787967
-3.38297
-0.584551
-3.68276
-3.3414
-0.171515
-3.71006
0.230895
-1.18448
-0.371245
-1.32004
-1.16416
-0.63495
-0.28403
-1.07783
-0.333423
-1.76169
-0.873372
-2.74815
-1.64797
-0.430587
-4.36447
-0.368823
-0.584715
-0.687844
-1.17837
-0.106328
-0.10023
-2.35123
-4.12663
-0.577595
-0.147505
-4.13602
-1.0684
-2.16535
-0.951574
-2.64265
-2.12501
-3.14503
-1.43479
-2.86832
-2.69626
-4.36392
-1.73181
-2.27921
-2.3931
-0.645317
-1.44646
-0.442668
-4.59199
-2.82373
-4.50086
-0.802168
-3.07978
-3.50055
-1.11425
-3.79235
-4.4211
-3.53486
-2.53005
-1.2621
-3.03077
-3.68648
-0.617646
-0.334557
-1.1321
-0.554128
-3.69164
-3.73896
-0.861611
-2.94883
-2.9148
-1.21
-2.72335
0.178935
-0.588146
-1.04465
-2.57758
-4.40411
-3.16775
-1.07513
-0.578854
-3.72469
-3.33581
-3.6704
-3.74438
-0.546839
-0.617713
-3.80151
-4.45611
-1.11915
0.13441
-1.09232
-3.92749
-2.97547
-3.63279
0.00988223
-3.08417
9.36013e-05
-0.497279
-0.254986
-3.86727
-1.03861
-4.30951
-1.10865
-4.45394
-2.66013
-1.31008
-2.46735
-0.772015
-3.33831
-3.67623
-3.57754
-3.58476
-2.80193
-1.40096
-0.225836
-0.183435
-0.615786
-0.266746
-3.8541
-3.23577
-0.0819826
-3.69548
-1.06419
-0.649557
-4.60895
-4.71914
-2.83622
-1.10177
-3.49281
-0.487461
-3.59557
-1.1179
-3.18473
-3.83883
-0.277904
-0.352962
-2.90213
-0.310333
-1.00128
-2.20996
-3.98607
-3.82322
-4.08116
-1.08342
-0.942431
-2.43349
-1.10729
-1.08791
-4.07577
-2.72651
-0.958771
-0.0432437
-2.78634
-1.04508
-2.54949
-0.143566
-0.757983
-3.90907
-0.111637
-2.72758
-0.418499
-0.258194
-3.51314
-0.284586
-3.1714
-1.05246
-4.05015
-4.12891
-4.18035
-1.11647
-3.88812
-1.19649
-3.92181
-0.665993
-3.81388
-3.63482
-3.86033
-0.0507802
-1.09636
-2.87849
-2.46821
-2.9585
-4.0873
-0.261904
-3.91315
-4.83645
-0.0382426
-2.87982
-3.79007
-1.03679
-0.293188
-3.92865
-1.11776
-3.83625
-3.74389
-0.268757
-1.13202
-4.20379
-3.06671
-4.29396
-4.11957
-0.350349
-4.62757
-2.59171
-4.06169
-4.27048
-0.102015
-2.48384
-2.55097
-0.000978496
-4.73088
-0.496023
-3.99228
-4.39493
-1.04392
-2.73924
-4.65567
-3.65465
-2.62748
-0.440083
-2.82228
-0.735332
-0.161595
-4.25688
-1.84044
-0.217808
-0.540663
-0.209884
-0.432513
-0.515161
-2.98903
-3.59009
-2.65603
-3.76109
-3.61033
-3.56776
-0.903475
-3.74439
-2.95025
-2.99014
-1.06386
-2.44578
-0.282609
-3.06628
-0.139789
-0.909259
-2.89372
0.0453638
-0.290037
0.0075759
-0.139355
-3.73009
-1.05706
-2.7913
-0.577093
-3.08004
-4.39018
-1.70054
-1.26197
-3.69317
-3.85939
-2.90641
-3.65873
-4.63208
-1.4661
-0.864951
-1.83003
-3.85254
-3.70919
-0.806357
-0.780541
-0.550712
-2.41625
-1.08281
-0.255463
-3.70615
-3.46999
-0.834563
-2.13941
-1.20531
-2.6935
-2.42103
-0.0882201
-3.86705
-2.91281
-1.27235
-0.910391
-0.10709
-4.14125
-2.69193
-3.9637
-4.49416
-4.25948
-0.182934
-0.95759
-2.46043
-1.18608
-3.86033
-3.83867
-1.80589
-0.320992
-3.68029
-0.0816532
-2.43155
-4.08102
-0.427944
-1.89581
-1.04429
-3.68558
-0.7334
-2.92648
-0.773163
-0.895975
-1.5248
-0.875914
-0.803291
-0.365818
-3.20333
-3.2831
-1.19173
-0.573858
-3.96171
-0.545029
-2.71013
-4.57169
-2.83332
-4.6063
-3.66443
-3.61091
-4.08073
-4.49341
-0.43349
-0.309052
-4.50192
-0.359662
-4.41605
-1.20983
-1.23459
-2.76022
-0.825272
-1.02892
-2.36356
-4.05718
-2.61894
-0.447816
-4.17474
-2.70378
-1.72418
-0.226185
-0.171931
-1.09005
-2.39826
-3.75338
-3.51702
-4.75645
-2.61555
-3.82123
-3.42882
-3.54662
-3.2401
-0.158516
-3.97398
-4.00143
-0.762897
-1.97688
-1.02705
-3.8821
-2.50316
-3.96861
-3.54529
-1.00872
-3.86944
-0.272871
-0.787215
-3.84031
-0.553542
-2.16791
-0.358
-2.75039
-3.48167
-2.07352
-0.866292
-0.625864
-2.73094
-0.379277
-3.96774
-0.0576657
-1.49425
-1.02421
-3.32615
-4.53272
-0.736133
-3.59004
-2.53327
-0.865474
-0.705415
-4.11477
-2.80906
-3.54286
-1.09503
-2.32099
-2.25998
-2.49513
-4.45838
-2.44106
-0.149574
-2.60673
-4.36823
-0.958037
-0.375234
-3.52534
-0.907622
-3.9141
-1.07764
-1.51869
-0.158493
-2.89645
-2.55187
-3.66459
-1.25894
-1.36878
-3.09389
-4.02307
-3.89355
-4.15117
-3.00595
-3.70054
-3.82307
-1.93643
-2.01027
-0.77315
-3.52564
-2.82627
-4.29238
-0.730642
-0.686531
-3.8029
-3.33048
-2.41245
-3.2494
-2.88418
0.0618189
-3.62995
-4.32867
-3.59553
-3.10822
-3.81003
-3.67005
-3.6671
-3.06725
-1.14131
-3.91582
-3.78297
-1.15939
-0.793826
-2.73777
-0.346712
-2.58008
-0.216422
-2.45241
-0.31067
-1.13218
-0.142033
-1.04584
-3.57894
-0.410878
-4.19401
-0.229835
-3.1045
-0.40314
-0.19116
-3.83148
-2.62361
-3.03216
-4.68396
-0.446288
-0.699444
-3.74718
-2.78281
-3.56687
-3.30158
-1.36082
-2.67695
-1.16206
-2.6759
-2.6651
-3.75503
-4.1888
-4.00295
-2.50099
-0.371659
-2.48978
-3.11465
-0.602006
-0.0448983
-3.24322
-0.190875
-2.50927
-2.67161
-2.62758
-2.74818
-2.78099
-3.81351
-4.62073
-4.29408
-0.487954
-4.05978
-1.62094
-2.81174
-4.60107
-4.62133
-2.8836
-2.66746
-4.03787
-0.350947
-2.87431
0.00363414
-2.97859
-2.5585
-1.351
-0.128571
-0.251511
-3.23023
-0.319213
-2.7887
-0.208795
-2.76694
-4.04052
-4.37606
-0.00060264
-0.442336
-3.90165
-0.879272
-4.38737
-3.63898
-3.74339
-1.08447
-4.3358
-4.02089
-2.4989
-2.54671
-3.85902
-0.0144148
-0.592525
-3.63975
-1.24045
-0.508058
-4.19061
-2.38797
-3.42716
-3.72533
-4.23885
-2.93271
-0.780981
-1.05542
-2.7345
-1.23168
-2.8542
-0.270178
-0.585302
-0.152082
-2.86176
-3.90655
-3.88886
-1.84343
-3.53281
-3.2859
-3.23065
-4.27976
-2.5752
-0.198048
-0.162864
-2.41745
-0.0274148
-3.68812
-2.11889
-4.28332
-3.55851
0.0417856
-2.50009
-4.52615
-3.7302
-2.6367
-0.372149
-0.246505
-3.75286
-0.419334
-4.75315
-0.294286
-2.83989
-4.17357
-3.22907
-1.21587
-3.82435
-3.3278
-0.519071
-3.74805
-2.95004
-1.0853
-4.1256
-0.357362
-3.59233
-4.0537
-0.310806
-2.53637
-3.73425
-1.05242
-2.82252
-0.81904
-0.206679
-2.60244
-1.09648
-2.76268
-2.96854
-1.5669
-1.99384
-0.471343
-3.52548
-4.12716
0.360466
-4.18456
-0.435851
-0.65145
-3.9354
-0.536549
-0.528531
-1.02317
-1.08316
-2.83595
-3.59699
-3.94398
-1.20926
-3.79543
-2.90336
-0.547735
-4.01298
-0.560969
-0.652678
-1.9926
-3.61763
-0.571594
-4.25261
-0.104269
-2.50973
-3.6772
-0.421738
-0.0823777
-0.800149
-0.139504
-3.66874
-3.55915
-1.0787
-0.593176
-3.90806
-0.175191
-0.257723
-4.18373
-0.338998
-3.69818
-4.33302
-2.1258
-3.68277
-4.49885
-0.863976
-4.29793
-2.89375
-3.82143
-0.152483
-4.35874
-3.88274
-1.58372
-0.858963
-4.15012
-0.624168
-0.703186
-2.65383
-3.58317
-3.2321
-4.13408
-3.61968
-1.79822
-0.17585
-3.12111
-0.950887
-3.63689
-0.168239
-2.74109
-2.93227
-3.94819
-0.373011
-0.923335
-1.06005
-2.85182
-3.70384
-0.703468
-3.84668
-4.03714
-2.69624
-2.63387
-2.75189
-3.7987
-0.467813
-0.513655
-3.93076
-3.5676
-4.10709
-1.87939
-2.80908
-4.44688
-3.76717
-1.12097
-3.90294
-0.268261
-0.279307
-0.208507
-3.78334
-0.462017
-4.80997
-0.08566
-0.452338
-3.48639
-3.77174
-4.49911
-3.69403
-1.08495
-1.55661
-1.2179
-4.04143
-4.40704
-4.49624
-4.08288
-0.586713
-0.528923
-4.34962
-2.84557
-1.1407
-4.01895
-3.74429
-4.6269
-3.77619
-3.75194
-2.61655
-2.86327
-3.58185
-0.345733
-3.77535
-3.78047
-2.37373
-0.0701861
-3.49551
-1.08438
-1.43605
-3.1065
-3.22359
-0.340561
-0.752936
-3.53778
-3.75939
-0.531094
-0.433478
-4.08431
-3.57601
-1.8434
-3.80601
-4.02188
-0.0337229
-1.20587
-3.71774
-0.716012
-0.581084
-2.57088
-0.298707
-0.358319
-2.71864
-1.86264
-2.768
-0.585416
-0.229486
-0.542135
-0.753615
-0.664763
-0.688226
-1.41693
-0.245794
-0.298481
-3.50496
-3.53779
-1.05163
-2.69574
-2.48443
-2.97774
-0.188794
-0.571057
-0.340712
-3.73016
-3.92231
-3.93022
-4.56062
-1.61417
-2.90439
-0.336699
-2.48194
-0.951755
-3.97619
-2.70143
-3.79539
-0.737062
-0.565375
-0.803101
-3.93997
-1.08264
-3.80923
-3.83458
-3.82422
-4.00384
-2.76264
-2.87647
-3.03833
-0.994599
-3.52012
-2.88021
-1.10592
-3.47565
-1.23409
-0.796461
-0.0169776
-1.28535
-3.61194
-2.62815
-2.55039
0.144733
-2.60454
-3.94663
-0.473494
-1.12564
-2.64963
-0.196622
-3.81267
-3.68501
-4.00971
-3.34725
-0.178231
-4.14832
-0.608769
-1.24438
-4.14949
-2.52026
-3.17947
-4.39533
-0.275466
-0.428318
-3.10373
-1.12393
-0.482506
-0.0356357
-0.588283
-2.18108
-1.19029
-0.95404
-0.507735
-0.816615
-1.24064
-0.265671
-0.402076
-0.282456
-0.478541
-1.02858
-0.509127
-1.78243
-0.260005
-1.08693
-0.343577
-2.86647
-3.60288
-0.115525
-0.148651
-2.5557
-3.78023
-3.90511
-3.71268
-3.72974
-0.40076
-2.88504
-3.29541
-3.34515
-3.61356
-0.618337
-1.05011
-2.92027
-1.06794
-0.546074
-3.91136
-1.07874
-0.259463
-2.55296
-0.428086
-3.27668
-3.15951
-3.82987
-0.23958
-0.18987
-2.57694
-1.04048
-0.330919
-1.59094
-0.0774431
-3.83079
-1.1358
-2.80444
-3.20862
-1.02261
-2.68885
-3.18731
-3.3173
-2.50734
-3.66637
-1.12861
-2.82897
-2.90977
-3.29781
-3.1748
-2.71267
-3.7125
-4.08717
-4.60908
-3.62055
-0.258775
-3.75732
-4.62934
-3.58116
-1.04713
-3.55394
-2.88587
-1.08203
-3.92418
-1.09025
-3.94417
-2.58262
-0.605357
-2.58657
-0.465445
-3.59782
-3.28147
-3.5851
-4.06813
-2.48587
-1.02791
-2.43866
-3.22453
0.168519
-3.09037
-2.98769
-3.21471
-4.32834
-0.30136
-4.44737
-2.47457
-1.65395
-3.19016
0.118007
-0.345903
-4.07655
-0.542447
-0.690265
-0.499628
-0.549841
-1.27833
-2.50774
-3.07899
-0.114587
-2.33754
-2.97902
-3.5118
-0.372329
-0.119042
-4.49259
-2.63155
-4.35047
-4.1978
-2.7153
-2.90511
-4.5718
-2.34997
-0.948266
-3.72112
-3.90338
-0.87489
-3.80316
-1.22512
-0.00547852
-0.619511
-2.14019
-0.368896
-0.689915
-1.38087
-0.491663
-0.732434
-4.22332
-0.0883331
-3.82329
-1.01524
-1.00606
-0.327639
-0.260044
0.0770239
-3.60891
-4.37397
-2.08816
-0.200774
-0.86966
-2.86877
-4.06448
-2.6922
-3.70649
-0.428908
-4.19704
-4.08265
-2.58805
-0.746191
-0.716985
-3.4542
-3.01229
-3.09918
-4.03597
-2.47457
-1.38818
-0.834214
-2.36594
-1.73522
-0.296709
0.0267787
-0.825556
-3.5529
-0.712951
-4.02008
-0.265618
-2.76206
-0.328789
-3.80997
-0.0602259
-1.1325
-1.01889
-2.51571
-2.79945
-3.6236
-2.96055
-0.102608
-3.60697
-3.66697
-0.133809
-1.03887
-4.03104
-2.45666
-0.218504
-2.63623
-1.04208
-1.83801
-4.05004
-2.48884
-2.70033
-4.05025
-1.90232
-0.207122
-0.0252342
-4.67655
-0.447876
-1.34143
-1.42439
-2.52218
-2.87966
-0.526126
-3.67373
0.0214861
-0.0773658
-4.22784
-0.591385
-0.374289
-3.73885
-0.273866
-3.68025
-2.38841
-4.60071
-3.22267
-2.86271
-2.616
-3.2844
-2.67701
-2.65147
-1.2926
-2.42085
-2.41036
-3.78307
-2.75329
-2.77734
-4.8775
-3.24736
0.0351185
-1.10235
-3.5868
0.137645
-2.87975
-1.11569
-3.69724
-2.42045
-3.71964
-3.2601
-0.537964
-2.69063
-2.44498
-3.42304
-4.86639
-3.55614
-0.350655
-3.4229
-3.77425
-0.0272349
-0.000666556
-3.61603
-3.79598
-1.10324
-4.225
-3.92846
-3.22187
-0.287671
-0.849728
-3.72734
-3.64323
-0.543626
-3.87117
-3.2898
0.0811555
-0.401329
-3.84194
-1.01052
-3.33671
-1.58715
-0.957445
-2.37862
-3.92419
-2.43883
-0.925915
-0.609157
-4.21698
-0.217837
-1.13956
-4.02976
-0.847922
-2.8353
-3.00151
-3.45267
-3.10801
-3.72122
-1.08676
-0.422379
-0.12317
-0.502395
-2.00152
-2.32473
-4.27353
-0.512924
-0.431475
-0.105996
-0.688503
-1.09133
-1.01547
-0.00682802
-1.09873
-0.939921
-0.594687
-1.03634
-0.960308
-0.0104916
-0.0888759
-0.786355
-3.56416
-1.22998
-3.4093
-4.49966
-1.06488
-2.70516
-1.09691
-3.49588
-2.79077
-4.41337
-0.0977388
-0.557469
-2.4446
-0.138766
-3.93726
-4.0297
-2.32806
-3.53603
-2.60256
-3.21658
-1.95321
-2.55827
-2.70688
-0.218928
-3.71935
-0.620649
-1.0526
-3.93971
-3.34453
-1.89493
-4.22093
-2.68498
-4.94544
-1.0986
-3.35071
-0.242781
-1.09544
-4.45191
-4.26938
-1.00286
-1.70523
-2.40199
-3.53931
-0.854537
-2.68647
-1.04989
-2.38501
-1.46804
-3.16644
-1.96032
-0.394735
-0.161388
-3.66205
-1.0391
-3.25063
-3.96894
-2.76663
-0.0740981
-1.12635
-1.83663
-0.474059
-2.92056
-0.431889
-0.33807
-3.41409
-2.99485
-0.878174
-3.82491
-0.0498048
-2.60542
-2.98775
-2.83251
-2.56049
-2.25775
-3.75727
-0.901891
-0.269408
-2.65661
-0.166521
-1.07826
-0.56076
-0.472122
-3.21675
-0.345869
-0.139282
-1.08986
-3.69541
-1.75499
-0.544607
-3.04999
-2.52237
-0.277528
-1.13947
-0.652777
-3.75779
-3.78425
-1.97554
-0.192548
-0.888453
-0.282812
-4.53014
-4.4375
-0.555204
-0.906994
-0.349551
-0.135742
-2.92658
-3.98231
-3.67189
-0.670414
-3.52514
-3.55118
-0.22196
-3.95413
-1.23873
-2.05804
-3.8851
-2.30107
-0.405268
-0.552909
-3.65953
-0.527176
-2.63895
-1.27607
-2.09922
-3.57941
-3.53101
-3.89852
-4.00594
-2.93119
-2.42418
-0.99431
-3.70513
0.122326
-0.934799
-2.52365
-4.62381
-3.2335
-4.31597
-4.03178
-2.83027
-3.49738
-3.11706
-1.54878
-0.370507
-0.635806
-0.902429
-3.90797
-3.34356
-0.43061
-4.55563
-0.62836
-0.320141
-1.10017
-2.78249
-2.73359
-4.16594
-3.85619
0.118213
-0.286447
-3.96912
-0.294413
-1.57647
-0.272204
-0.298887
-2.33626
-0.388233
-3.92213
-0.400884
-2.38493
-0.446954
-3.31624
-0.709017
-0.309773
-3.54865
-1.1924
-2.41213
-4.85267
-3.95381
-3.5836
-3.41509
-0.943819
-3.99644
-4.29331
-0.479414
-2.19498
-0.743828
-3.24693
-1.48226
-3.9611
-1.54977
-0.305584
-0.34576
-0.168595
-0.925102
-3.62754
-2.14224
-4.21435
-1.08489
-1.09229
-0.667002
-3.15242
-3.70557
-3.74068
-0.432082
-0.417028
-1.2597
-0.689709
-0.49979
-0.981341
-3.67475
-4.03265
-3.50954
-0.370554
-2.80315
-1.08061
-2.55951
-0.663299
-0.302741
-3.06891
-3.82339
-2.49384
-1.03653
-1.2809
-0.740542
-3.90152
-0.193814
-0.550605
-2.75842
-4.19524
-1.31598
-2.83544
-4.27073
-0.758406
-1.08537
-3.91588
-0.0777891
-2.12725
-0.252834
-3.31788
-2.28193
-0.142442
-0.638313
-3.74761
-4.5507
-1.04508
-3.83415
-3.89193
-0.319595
-0.761622
-1.05549
-0.409462
-0.411509
-3.75669
-4.31494
-2.39003
-0.180751
-0.708369
-4.27639
-3.82198
0.0872802
-3.48092
-1.10967
-2.71438
-4.69708
-3.77027
-0.0403529
-2.77975
-2.52521
-1.14732
-0.376855
-2.9845
-3.52483
-0.503431
-1.07177
-0.398656
-3.62138
-0.333698
-1.03627
-0.696065
-0.172738
0.089574
-1.0318
-3.99925
-3.55919
-0.138188
-4.21661
-2.45449
-3.15053
-0.305191
-2.6916
-3.19644
-0.710257
-2.755
-2.995
-0.855576
-1.83916
-3.47481
-1.35896
-4.04612
-2.62572
-0.177855
-0.844982
-2.60173
-4.38081
-1.20248
-3.96925
-2.9972
-3.1846
-3.26277
-3.88976
-4.32203
-2.11957
-2.10325
-0.868936
-3.26417
-0.10187
-1.70558
-1.40338
-2.87351
-0.644295
-0.24388
-3.43042
-0.489059
-3.85324
-4.37403
-2.59597
-1.184
-3.71769
-2.50944
-3.39482
-2.86142
-0.778445
-0.0760441
-1.10228
-3.491
-4.0243
-3.72128
-4.04484
-3.56936
-3.14536
-3.96971
-0.308022
-3.97947
-0.675242
-2.96603
-3.82234
-2.80145
-4.07665
-4.0583
-3.86005
-3.83714
-0.235696
-2.0432
-2.67406
-0.252233
-4.37643
-3.82497
-2.49908
-0.489162
-2.96989
-3.11869
-3.69596
-3.80039
-1.22606
-2.45798
-3.59608
-3.84029
-4.16618
-0.492791
-3.69657
-2.90325
-0.227911
-2.8936
-4.20019
-4.20866
-3.72073
-3.23619
-3.82601
-3.3776
-3.76425
-2.37351
-0.120852
-0.35756
-3.82241
-1.03721
-0.107645
-4.11091
-0.999171
-0.237912
-0.39168
-2.89356
-2.87572
-1.13187
-0.381294
-0.00351572
-2.27279
-2.52022
-0.27162
-4.55939
-0.302137
-3.2686
-3.15055
-1.77016
-0.306723
-2.57192
-3.79616
-4.46657
-3.67681
-0.684803
-1.09009
-2.83047
-0.344322
-0.663254
-4.37608
-0.821836
-3.85725
-3.07357
-3.81324
-0.54089
-2.94208
-4.324
-3.68195
-0.398669
-3.04564
-3.26392
-4.75728
-0.685972
-0.0592164
-0.957825
-3.2452
-0.262454
-3.92409
-3.22111
-0.925772
-2.41427
-0.243117
-3.58869
-2.09189
-0.0567653
-3.63369
0.133163
-3.17073
-2.98716
-3.2434
-3.71181
-3.08455
-0.289764
-4.30055
-3.07356
-0.635243
-3.59068
-3.68582
-3.49864
-4.63761
-2.6442
-0.282449
-3.31555
-0.4881
-2.9297
-0.657601
-0.707395
-1.50678
-0.476796
-3.96346
-0.545067
-0.54595
-0.210494
-2.2362
-0.186516
-2.61011
-3.51572
-3.98109
-1.67137
-4.68818
-2.61109
-1.08193
-1.62996
-4.24898
-0.159033
-2.93812
-3.78976
-3.08051
-0.460368
-0.950654
-0.314993
-4.55208
-3.34327
-0.753469
-0.472158
-0.535551
-0.528941
-3.06221
-1.00356
-0.749768
-1.5195
-3.76419
-2.24183
-0.732656
-0.728054
-3.75014
-4.21409
-1.08628
-2.47376
-0.318288
-0.22177
-0.20673
-1.02859
-1.2924
-2.92015
-0.718023
-1.06246
-0.169217
-0.932143
-1.84293
-3.05485
-3.71657
-2.03067
-2.86617
-3.65508
-2.89571
-3.62424
-0.219264
-0.799169
-2.40837
-2.77197
-2.75662
-0.618859
-3.79345
-1.66983
-4.13705
-0.283272
-3.89502
-3.90061
-0.456207
-1.05589
-1.19759
-3.45967
0.0913655
-3.79696
-4.12514
-4.50966
-2.33117
-3.8232
-2.43914
-3.25999
-1.51979
-1.20944
-0.377433
-0.419402
-3.39857
-3.06902
-0.285185
-0.546024
-0.27415
-0.401014
-4.18216
-3.75894
-3.89167
-0.848813
-2.93561
-2.12368
-3.62634
-1.2258
-0.705599
-0.717417
-3.83406
-2.15943
-1.07943
-0.488975
-0.361657
-3.63803
-3.6206
-2.42831
-1.1141
-4.10727
-4.56081
-3.51731
-3.61941
-0.0516012
-2.95318
-4.36506
-2.48891
-3.2299
-3.88691
-2.96414
-3.13912
-0.367493
-0.35202
-1.05907
-0.360337
0.0182962
-0.373975
-1.60292
-4.71178
-3.67872
-0.0193078
-0.495443
-3.67107
-0.273777
-0.783086
-0.905757
-3.51863
-1.14174
-2.81724
-2.54991
-0.527436
-3.47142
-3.71844
-4.03896
-0.291946
-3.28343
-4.01118
0.060838
-0.817874
-0.320802
-3.33223
-3.70825
-0.34749
-3.86598
-1.12413
-3.61461
-2.80369
-0.343521
-2.47056
-0.822627
-0.238787
-1.07375
-4.42084
-0.141348
-0.0256909
-3.82714
-0.273775
-0.352766
-4.17851
-3.74781
-0.815111
-4.50806
-3.90451
-3.8173
-1.06534
-3.48524
-3.6616
-2.62075
-0.82084
-3.87895
-0.490254
-0.559852
-0.704872
-0.848651
-0.315554
-0.441269
-1.08695
-3.36143
-1.18007
-1.85384
-0.885382
-3.66806
-3.73112
-0.384128
-0.783452
-0.775417
-4.17176
-3.30036
-3.22996
-2.98954
-2.33386
-3.09596
-3.72121
-0.338801
-3.4888
-3.13531
-1.0339
-2.80477
-2.64617
-2.48968
-3.06011
-3.63821
-3.44387
-4.16242
-4.04358
-3.23519
-2.45009
-3.91531
-2.65953
-2.42329
-4.17454
-1.66576
-3.95809
-4.08798
-1.51482
-4.13191
-3.20456
-0.552964
-0.97096
0.0250227
-2.64823
-3.68375
-1.06516
-3.3788
-0.488311
-0.577275
-2.60177
-3.41912
-3.43508
-3.04632
-1.19159
-3.67068
-3.96055
-0.790675
0.141555
-0.0202998
-1.42457
-3.73322
-0.292521
-0.182127
-3.53915
-0.268675
-1.95657
-0.321324
-0.761904
-3.70247
-0.914144
-3.60621
-3.7965
-3.68083
-1.09256
-2.61522
-3.86759
-3.49379
-0.212965
-3.9796
-0.83204
-0.606111
-0.846612
-3.81681
-1.07313
-3.74998
-2.48561
-2.63225
-0.00276944
-1.09638
-3.56976
0.0337195
-2.68738
-0.272369
-0.468905
-2.83671
-2.92868
-3.66819
-3.92319
-2.42626
-0.655686
-1.20091
-0.591935
-2.13511
-1.93214
-0.435095
-4.37194
-4.00804
-0.877079
-3.74442
-0.751528
-4.18522
-4.31523
-0.96409
-2.46978
-2.26674
0.0305373
-2.55574
-3.28741
-0.655178
-1.99057
-3.67458
-0.87878
-3.31097
-3.20472
-0.972123
-1.10209
-0.323589
-2.64522
-3.03002
-2.18865
-2.66789
-0.146368
-2.9801
-4.52119
-3.79693
-0.497183
-1.11805
-0.542894
-0.387321
-4.12296
-0.395897
-3.6076
-0.829429
-0.242734
0.0932906
-0.0308352
-4.42395
-0.55232
-2.73477
-3.97324
-2.5656
-0.183068
-3.92267
-1.09776
-4.14618
-0.692787
-2.72839
-0.377801
-2.98903
-2.80261
-3.94189
-1.12537
-1.4788
-3.03635
-2.54052
-0.0515973
-0.435439
-0.155282
-3.24718
-3.88553
-0.222227
-3.97276
-0.143364
-0.760544
-2.87159
-0.499888
-4.46485
-1.72366
-3.68011
-3.56963
-3.2722
-1.23786
-2.06388
-2.5203
-2.99594
-0.854038
-0.00884212
-2.31331
-4.23264
-2.49268
-3.46775
-3.48265
-1.00872
-0.557831
-1.05638
-1.49174
-2.74001
-4.00149
-3.28125
-3.47921
-3.94496
-3.52363
-2.25006
-0.588869
-1.75802
-3.04091
-2.81885
-3.98846
-1.02021
-4.07606
-1.17255
-2.29345
-2.40354
-1.65147
-1.07546
-2.37548
-4.22008
-3.47281
-3.67789
-1.15124
-2.10159
-3.03134
-0.511564
-1.02956
-2.25553
-3.31427
-2.08335
-3.17007
-0.748957
-2.15226
-2.65982
-2.89027
-3.38888
-3.0912
-2.76955
-1.11959
-2.69927
-3.33817
-2.58581
-4.17433
-4.16224
-2.21699
-1.06819
-3.51704
-2.62331
-0.537974
-0.591468
-0.438051
-1.10367
-0.989854
-0.371156
-2.95891
-0.437283
-0.506792
-3.18934
-3.1412
-0.93333
-0.490921
-0.589387
-3.87673
-4.11143
-2.10695
-0.838192
-0.909237
-0.807065
-0.223157
-3.51481
-2.45432
-0.584421
-0.625058
-2.85987
-0.500916
-2.46861
-3.5913
-1.10402
-0.228388
-3.60757
-0.978989
-0.977623
-0.691276
-0.788419
-1.16451
-2.9661
-4.24217
-0.425768
-2.98367
-1.15599
-3.57213
-1.85835
-0.412995
-0.447289
-4.14577
-1.15283
-1.78576
-1.13967
-0.167176
-2.86325
-1.46322
-2.86444
-0.504138
-0.965015
-0.268399
-0.65284
-1.88964
-3.98624
-0.436364
-0.65392
-0.476579
0.354747
-2.61118
-0.515052
-3.74731
-0.0272904
-0.690127
-0.755665
-1.72429
-0.090554
-3.501
-0.197596
-1.20026
-1.21734
-4.31282
-3.61446
-4.09275
-2.80952
-3.90168
-3.35941
0.0822815
-3.51899
-3.62985
-3.20719
-4.59722
-3.86684
-0.324783
-1.0824
-2.33095
-2.75309
-2.42317
-3.62324
-0.348814
-4.33184
-0.801094
-1.31565
-1.08182
-2.52516
-2.56288
-0.43647
-1.33295
-3.56466
-2.27858
-4.16782
-0.226123
-3.78189
-3.4837
-1.09567
-4.34777
-0.679266
-0.619285
-3.60581
-3.68002
-1.11451
-0.274454
-2.80316
-0.470711
-0.031208
-0.616366
-0.588183
-1.2258
-0.434455
-1.42055
-3.79905
-3.62708
-0.329778
-3.73851
-1.77614
-2.58337
-2.54831
-0.316329
-0.145355
-2.60806
-3.65206
-0.978041
-0.332117
-3.76769
-3.93886
-4.00838
-0.251439
-0.23218
-0.334172
0.0171655
-0.941159
-0.591053
-3.81173
-0.671787
-4.40822
-3.82567
-3.42841
-3.87078
-0.0187039
-0.996741
-2.68923
-0.152723
-0.0143256
-0.999971
-1.0813
-1.07688
-2.66506
-2.90553
-3.47439
-3.87808
-1.03882
-0.494663
-2.6242
-0.753913
-0.396883
-2.15509
-0.633626
-3.1191
-2.90101
-1.23161
-0.328145
-0.323321
-2.84133
-2.8713
-0.528611
-3.73332
-3.6827
-3.44556
-2.97859
-3.78939
-2.8232
-2.7366
-2.57316
-3.42472
-1.09707
-0.106553
-2.65397
-3.67976
-1.13139
-4.00483
-3.19342
-3.82347
-3.87678
-3.88312
-0.411775
-0.903119
-2.33965
-0.0624729
-0.441607
-4.4102
-3.31799
-1.77576
-3.31711
-4.02849
-0.738851
-0.985011
-4.33181
-0.198558
-1.08116
-3.25187
-2.58153
-0.648535
-2.77506
-0.0498094
-2.5819
-2.40719
-2.94155
-2.23697
-3.87949
-1.01544
-3.90681
-3.57176
-3.80166
-2.27087
-0.440273
-1.08602
-0.426073
-4.65491
-4.43842
-0.68157
-0.3724
-4.01537
-4.39472
-4.05047
-4.15642
-0.67853
-2.65777
-0.612534
-2.23361
-3.57366
-3.93388
-3.69403
-2.76732
-0.705444
-0.896546
-3.96387
-0.777344
-0.133523
-3.94112
-1.4979
-0.518596
-1.08731
-0.967176
-0.607993
-3.44739
-0.110674
-3.71822
0.0465705
-2.11633
-3.75823
-2.83769
-0.0583585
-3.47719
-3.90573
-0.0610519
-3.38114
-0.421325
-2.78381
-1.15015
-1.07551
-0.221566
-3.73871
-1.07779
-0.476597
-3.77632
-1.05142
-0.0831793
-0.715095
-4.04059
-3.20952
-0.917639
-0.238431
-3.90302
-4.04348
-3.97297
-0.95652
-4.27461
-3.18311
-3.71002
-0.103193
-1.19192
-1.08513
-3.49449
-0.144158
-0.861067
-0.122093
-3.12695
-3.67461
-1.02336
-4.01602
-2.62906
-0.42658
-3.78654
-0.0449873
-3.80876
-0.863491
-4.32869
-3.76775
-1.91086
-0.75065
-0.420733
-0.687729
-0.994684
-2.51729
-0.474127
-3.2234
-3.85686
-1.01001
-4.58085
-4.40674
-3.33193
-1.48968
-3.73458
0.0564998
-3.37554
0.111697
-3.89175
-0.291906
-0.312797
-3.69518
-0.472396
-1.21619
-3.52302
-3.5839
-3.76736
-2.51071
-3.79876
-1.09961
-2.99447
-3.95422
-2.53521
-3.0324
-3.94441
-4.1066
-3.80772
-2.54719
-0.0330227
0.195436
-2.76562
-4.43596
-3.43867
-0.189285
-3.02588
-3.80806
-1.1131
-2.55495
-0.139204
-0.547377
-1.22155
-3.75433
-0.220292
-0.318446
-2.44375
-0.0570506
-0.407607
-3.71621
-3.9176
-2.04332
-0.449187
-3.84979
-0.632029
-3.38556
-4.13058
-0.269374
-0.446093
-3.57633
-0.265371
-0.599603
-2.90685
-3.05234
-2.50594
-2.71194
-2.90907
-0.312231
-3.90699
-0.556451
-3.62871
-2.09205
-2.8941
-2.8926
-0.977645
-3.39852
-0.189712
-3.43802
-2.86035
-0.511513
-3.56008
-3.0931
-3.49772
-2.52414
-3.74809
-2.74935
-3.71614
-1.76265
-3.804
-0.169414
-0.121359
-3.85497
-2.96061
-3.06294
-2.49559
-0.612478
-3.02214
0.0641408
-4.30472
-1.09203
-0.647005
-1.08538
-0.610998
-0.00793444
-0.128482
-0.0460965
-3.98706
-0.584486
-1.68878
-2.41002
-0.451917
-4.02779
-0.401885
-2.6318
-4.67549
-0.980744
-3.85804
-4.01986
-1.07712
-3.8867
-2.60408
-0.0905412
-2.7078
-1.62314
-2.40188
-0.248368
-4.33784
-0.635077
-2.51828
-0.437332
-0.456219
-0.702652
-1.02739
-2.80779
-2.07807
-2.77889
-1.15582
-0.720491
-3.87341
-3.97911
-3.67162
-4.08428
-0.0515012
-2.65821
-0.481094
-0.478881
-3.1047
-2.81014
-0.608723
-0.465983
-4.72145
-3.20253
-3.76428
-0.330744
-4.67341
-3.42692
-3.76889
-0.512615
-3.78699
-3.96962
-1.28322
-2.91737
-2.13876
-2.65472
-3.44451
-3.16069
-0.618614
-0.436416
-1.11179
-0.124224
-3.86938
-2.57819
-0.842207
-3.83624
-3.13217
-2.4873
-3.41111
-3.63738
-1.41009
-0.0442787
-1.50837
-3.4929
-3.7028
-3.19886
-0.848121
-3.97252
-1.06384
-3.49094
-2.99519
-0.286254
-4.30864
-0.0811409
-3.80404
-0.192762
-4.60937
-0.0672873
-0.975505
-4.24504
-4.67104
-3.54744
-3.35758
-3.58134
-0.510895
-4.08795
-3.77799
-3.68507
-0.768899
-3.80779
-0.409849
-0.165312
-0.124335
-0.716406
-0.262047
-3.72721
-0.326371
-3.84874
-3.74484