/*--------------------------------*- C++ -*----------------------------------*\
  =========                 |
  \\      /  F ield         | OpenFOAM: The Open Source CFD Toolbox
   \\    /   O peration     | Website:  https://openfoam.org
    \\  /    A nd           | Version:  9
     \\/     M anipulation  |
\*---------------------------------------------------------------------------*/
FoamFile
{
    format      ascii;
    class       surfaceScalarField;
    location    "0.1";
    object      phi;
}
// * * * * * * * * * * * * * * * * * * * * * * * * * * * * * * * * * * * * * //

dimensions      [0 3 -1 0 0 0 0];

internalField   nonuniform List<scalar> 
143364
(
-9.8134
1.40779
8.40561
-4.2492
8.71142
-4.46221
9.80064
0.58541
-10.3861
-13.1192
9.14583
3.9734
-0.236488
10.0371
2.81115
-8.85271
6.04157
7.95388
0.800242
-8.75412
-0.864198
-6.80693
7.67112
6.11914
-10.6413
4.52212
10.1224
-2.16854
8.61142
-8.35341
-0.258002
1.84133
6.77009
-0.35589
8.45862
-8.10273
-10.3382
5.86154
4.4767
-9.90454
5.6896
4.21494
10.4623
-2.96618
-7.49616
1.91781
8.39244
-10.3103
6.64476
-10.1155
3.4707
-0.364565
-9.23101
9.59558
0.324798
10.1375
0.130721
6.26113
-6.39185
-0.637284
8.58897
-7.95168
5.66296
-9.19432
3.53136
9.64183
-6.83069
-8.48215
7.84487
-2.32834
9.01056
-6.68222
-11.13
7.10247
4.02749
-9.4251
0.572388
-6.03664
6.16736
-5.52697
11.1899
-2.79304
8.91218
8.00349
-8.94127
0.937778
-6.63433
-4.49563
-10.6483
11.4971
-0.848795
-8.84508
10.71
-1.8649
-8.17962
-9.45199
17.6316
10.6545
-9.69603
-0.958502
-17.4539
14.1982
3.25569
9.72294
-1.71945
7.28502
-15.4646
7.83455
-11.2068
3.37221
-0.135394
-7.53617
7.67157
-6.39886
9.52474
-3.12588
4.3818
-10.6732
6.29138
5.12047
5.56673
-10.6872
-13.6001
5.15365
8.44647
-10.8607
-2.73943
-4.7859
8.74555
-3.95965
11.8404
-6.74349
-5.09696
3.7056
4.66509
-8.3707
8.99614
0.301199
-9.29734
7.09334
-10.8308
3.73748
-1.59643
-2.37212
3.96855
11.2462
-2.2501
-12.5396
8.57534
3.96425
-2.80164
8.64993
-5.84829
-12.8014
-4.65246
9.8695
-1.74907
-8.12044
-3.30906
9.90629
-6.59724
-1.2287
-6.13773
7.36643
-11.3023
8.71149
2.59077
4.77395
-7.57559
9.74717
4.09408
7.74637
2.01776
8.02201
-10.0398
-13.129
-1.49445
14.6235
-11.7151
7.7857
3.92941
11.3246
-8.16833
-3.15626
12.5516
-7.50546
-5.04614
0.361618
-0.822625
0.461008
1.94468
7.43322
-9.3779
-12.0607
8.04338
4.01729
-3.24807
12.4473
-9.19925
-3.48418
-6.85406
-0.403788
0.240775
0.163014
6.16522
-11.6077
5.44246
11.3684
-11.3684
-9.23227
4.98306
-7.06166
-2.17061
-4.14967
-4.22836
8.37803
12.1299
-7.79018
-4.33975
-4.38607
-5.31594
9.70201
-6.0032
-5.25181
11.255
2.89152
-8.91231
6.02079
-0.920099
-7.92498
-11.6928
7.30675
0.234263
-1.86857
1.63431
-7.7024
0.564897
7.1375
4.86229
-1.06918
-3.79311
-13.0175
11.7635
1.25397
-0.199305
-0.204482
1.78903
7.69796
-9.48699
-1.87006
-0.679661
2.54972
-2.79081
0.084476
2.70633
-7.91454
7.05034
-1.71615
8.38759
-6.67144
-9.72918
11.305
-1.57585
-15.2843
10.2081
5.07618
9.2814
0.588099
9.22013
-6.20552
-3.01461
-5.26262
12.356
-9.10066
2.7018
-2.25773
-6.05516
8.31289
1.69525
-1.46099
-4.99017
8.14244
-3.15228
3.53452
4.12802
-7.66254
-3.39093
-3.18968
6.58061
-1.31913
-6.95278
8.27192
1.18215
-9.40181
8.21966
-3.24789
13.3706
-10.1227
6.12977
-1.26748
8.35932
-8.77652
0.417195
6.62908
1.21576
-7.84484
9.05387
0.615051
-9.66892
-9.04892
11.401
-2.3521
2.84093
-8.84413
-5.92086
10.5289
-4.60809
6.03913
2.96242
-9.00155
-4.74168
8.84208
-4.10041
3.60637
-9.86255
6.25618
6.72085
5.40909
4.56786
-9.9708
5.40295
6.07842
6.47318
-0.624031
-0.962486
1.58652
8.97014
-9.99453
1.02439
6.60963
-0.476842
-6.13279
-1.57203
0.948004
9.09017
0.889508
-9.97968
-15.7935
14.4846
1.3089
-1.81682
8.42646
-14.8177
-2.4206
17.2383
-1.28343
-9.56321
10.8466
-10.4847
0.552399
9.93235
11.3591
-7.34496
-4.0141
9.69386
-6.91226
-2.7816
-0.324135
-7.60789
7.93202
5.57082
2.59061
-8.16143
-8.50723
7.27853
4.4452
-4.72817
0.282969
-2.75126
0.881199
-11.5791
7.6749
3.90422
12.1157
-6.50073
-5.61494
-12.474
8.07953
4.39451
-14.476
14.7126
-0.236572
0.273777
-9.27884
9.00506
-10.1665
-4.30954
-9.86253
9.9876
-0.125077
-10.3622
0.555093
9.80711
-6.49044
8.81503
-2.32459
-8.2353
-0.571168
8.80647
-2.94543
-4.54306
7.48849
-4.13821
-7.5769
-5.665
10.1176
-4.45265
-5.47978
-4.38275
-6.6654
-3.23913
3.25412
7.85297
-11.1071
-10.6533
-4.63101
-10.0246
9.83473
0.189853
-0.750194
-9.27439
8.40987
-4.87535
-7.46272
-2.08114
9.54386
-7.80967
7.80967
8.05264
-2.48181
-0.519577
0.310334
0.209243
-6.72991
9.98403
-6.56499
10.5551
-3.99007
-4.80137
9.74721
-4.94584
-0.278802
8.3677
-11.1946
2.82691
-8.58839
3.18218
5.40621
7.60127
1.10622
-8.70749
9.98714
3.83447
-13.8216
-10.6978
4.31036
6.38741
-8.83681
12.4432
-2.89013
-5.15623
8.04636
-1.52234
9.12361
16.6831
-11.014
-5.66915
-6.19186
10.4389
-4.24706
0.610759
3.51482
-4.12558
-6.06203
16.0492
5.99665
-11.8614
5.86473
-14.34
3.31538
11.0246
0.315602
0.405146
-0.720748
-0.158882
8.73945
-8.58057
8.00283
1.18711
-9.18994
-1.01549
-7.91344
8.92893
-0.334872
0.650474
-9.77525
-2.6988
6.47164
-9.43782
-8.28436
5.33893
10.6993
2.88433
-13.5836
8.27442
-6.48539
8.96169
-6.07017
-7.41082
-1.17757
-11.1758
6.7351
4.4407
13.3869
4.07842
-17.4653
-5.37573
8.57148
-3.19575
3.32808
-9.24893
4.16857
-8.96994
-7.91726
6.16459
1.75267
-8.08668
1.89482
3.72677
-3.11601
-8.9355
-0.120221
9.05572
3.90634
4.14719
-8.05353
-11.1158
2.18028
-4.83967
8.74601
-3.25304
-7.37077
10.6238
9.54048
0.0895819
6.67765
-5.72755
-0.950101
-12.0899
-0.0574296
-8.37931
8.43674
-12.3548
3.12509
9.22967
-0.0689249
6.78977
8.00946
1.08071
-13.9829
10.5107
3.47223
2.67768
-8.34268
-6.61716
-4.35403
10.9712
-14.8026
14.8026
-6.36397
10.8461
-4.48213
2.91617
-9.28015
-0.27656
0.638178
11.0276
-6.36252
3.80568
8.30999
-5.82114
10.3731
-4.55197
15.2142
-8.43892
-6.77524
6.74956
0.987631
-7.73719
-6.86061
-4.31519
-9.74893
-2.76577
12.5147
-9.14634
2.02162
7.12471
7.22835
7.98581
-7.75676
2.7666
6.66158
-7.01747
8.8115
-0.808669
8.35891
-8.23954
-0.119368
5.27076
3.94937
7.80401
-11.3724
3.56837
13.5956
-7.28564
-6.30995
-9.01767
9.64929
-0.631619
1.88798
-10.9057
15.089
-14.0965
-0.992567
-9.35693
2.77604
6.58089
-4.39537
-7.66529
-10.765
3.06216
7.70281
4.07837
6.94925
1.59011
-10.7133
9.12322
-13.661
12.8207
0.840327
-9.59362
9.41085
0.182767
4.29186
7.03273
4.95925
-0.514043
8.8906
-3.02906
1.10642
6.68293
-7.78935
7.51279
2.04824
-9.56102
-9.87153
3.09617
6.77537
-4.13084
-7.17142
1.12985
-8.80321
7.67337
5.05333
3.30599
-9.29484
0.148503
3.10583
0.660604
-3.76643
-2.04728
-12.7553
-10.4972
3.36985
7.12731
-7.57844
-0.153548
7.73198
-8.21057
-0.921601
9.13217
3.20134
5.08348
-8.28482
3.27168
6.42217
9.12836
1.52617
-6.95623
8.06265
0.546996
-8.12543
-9.15834
7.52019
1.63816
-6.55964
12.0235
-5.46387
-10.4051
3.84015
-9.82075
5.07907
5.80479
9.28425
-8.28002
-1.54073
-2.13525
-7.02309
3.26272
-9.82236
-9.05858
6.80085
-3.21782
-7.26024
10.4781
-13.5973
7.1188
6.47849
-0.534491
9.64627
-9.11177
9.7117
-0.657835
12.3099
-2.38214
-9.92779
4.87093
-8.11882
-2.08685
9.03116
-6.94431
-0.300387
6.94514
8.66485
-2.80279
-5.86206
0.00466672
-7.70706
3.71003
6.89603
-10.6061
8.4491
-4.73907
-9.33176
9.33176
6.00092
-11.4003
5.39935
-7.85195
-5.03688
8.69535
-3.65847
5.07046
-6.78661
-1.46166
-14.34
-12.9278
4.05723
8.87055
12.7306
-4.95266
-7.77791
12.7807
-8.52571
-4.25501
-3.65378
-7.1112
6.84803
1.2036
-7.69404
-3.35396
9.8527
-6.49874
4.35061
3.86775
-8.21835
6.73794
1.97363
-8.71157
8.30161
-9.48197
1.18036
-8.37695
-1.21667
-3.79486
-7.07867
10.8735
3.21973
5.25836
-8.4781
1.20105
-8.27726
7.07621
7.7684
-0.282406
-7.48599
1.36927
6.5141
-7.88336
-6.78765
-4.73543
11.5231
8.03837
-0.269968
-0.287204
0.581655
-0.294451
3.97835
8.33158
-8.00415
-11.9193
-3.87418
7.18311
-5.23843
1.9633
-5.30928
3.34599
-10.2363
10.2363
-4.88324
12.9827
-8.09942
-10.1046
6.85656
-0.563764
-0.638988
7.51874
-6.87976
8.35743
-3.97562
2.80679
6.38154
-9.18833
-3.8675
-3.33413
7.20162
-10.0668
-4.1573
14.2241
16.216
-11.9162
-4.29977
8.70161
-6.68385
7.67259
1.24427
-8.91686
-3.48643
-7.21135
-10.8293
8.35349
2.47586
0.518646
9.87094
-10.3896
-0.0569776
-0.443822
0.5008
10.8893
-10.8893
-7.93775
11.3592
-3.42142
8.38139
-1.64345
-7.66969
-3.90943
8.55233
-4.68459
-10.7279
4.6452
6.08271
10.8336
-7.58204
-3.25158
2.28435
0.602913
-2.88726
-11.4771
8.57285
2.90428
5.77063
-6.78612
-2.63081
10.0209
-7.39013
-5.77785
-5.69928
-9.80172
7.17091
-2.87172
11.8419
-7.16147
-0.0987627
7.26024
4.46866
4.32036
-8.78902
9.54048
10.3513
-0.379263
-9.97205
6.93936
4.30689
0.886286
-8.73823
-5.8965
-4.45968
10.3562
8.56415
-7.4343
-10.5832
4.68666
-1.68131
-8.78788
10.4692
-9.64651
7.9652
-8.98743
8.50374
0.483686
-7.72589
-1.26154
-11.8271
2.18073
9.64639
-1.13287
-6.39287
7.52574
0.903674
-9.83326
8.92959
-7.12596
-0.791294
-7.08009
-3.05461
1.90374
1.15086
3.48619
-7.44893
3.96274
8.08687
-8.08687
-9.34323
5.54838
6.92612
9.28989
-3.13974
-6.2035
-2.01402
7.13448
6.82844
-3.34225
8.14442
-11.6769
3.53248
13.3869
-7.52931
0.367832
2.69138
-10.133
7.44166
-5.53676
6.78417
-1.24741
6.88442
3.94921
1.66309
6.69581
-11.3409
12.9903
-1.64932
-7.25068
2.46479
-0.781186
6.30745
-5.52626
-4.25087
-9.34642
6.95549
-11.4309
4.47539
-7.18865
-0.340652
-0.292636
-0.405623
0.698259
1.7413
-7.11703
-7.05469
-1.00918
8.06387
-9.50385
9.50385
6.33269
-10.0706
3.73795
-10.8092
5.29369
5.51552
-7.69084
12.3613
-4.67041
2.65675
13.098
-15.7548
9.60624
-2.07653
-7.5297
10.8069
-6.31978
-4.48716
7.9894
2.81754
-0.33319
8.6348
1.37785
6.58567
-7.96352
4.61428
-9.93022
-5.64063
13.1056
-7.46493
-4.33494
-4.57766
8.9126
10.3297
-2.52569
9.76161
1.12017
-10.8818
-10.6707
4.61551
12.1272
-4.57547
-7.55176
9.66467
-7.02763
-2.63704
1.78345
-0.592899
-1.19055
-16.1005
6.64852
-6.48513
-9.61538
5.68247
-3.71917
9.97942
-2.36483
-7.61459
-8.37793
1.92043
6.4575
-4.27551
12.4199
9.40989
-0.611179
-8.79871
12.9176
-2.93823
0.999893
0.783555
-14.5536
10.5972
3.95639
-8.98433
-1.82489
-5.39525
9.70514
-4.3099
5.6403
-7.18013
1.53983
9.79566
-6.98887
1.56876
-8.74152
7.17276
0.336314
-3.47977
3.14345
9.88005
4.16313
-14.0432
1.45639
-9.8098
11.3155
-9.31959
-1.99589
4.29677
-3.96046
-13.8393
-0.978392
16.3674
-6.48737
1.45624
6.98314
-8.43938
-6.37385
7.83009
-2.91008
1.31365
6.10737
1.88929
-7.99666
-7.10622
1.56946
2.04091
5.71101
-7.75192
-0.146123
-7.78382
7.92995
-4.18827
6.32124
-6.68581
9.05067
-3.64115
-5.40951
10.8261
-10.8261
-4.06227
-7.63056
5.35376
-15.4205
-1.524
-0.0515739
1.57558
7.77482
-8.90769
4.82764
4.80241
-6.1726
-4.11293
10.2855
-2.16595
7.36411
-5.19816
10.8534
-6.79412
-4.05925
-8.77204
-5.57238
14.3444
12.1031
5.52852
-13.9895
4.00818
9.98135
6.5376
-9.35809
2.82049
0.35377
8.01393
-9.68759
-4.30194
2.64761
6.66811
-9.31573
-11.4446
7.16793
4.27672
-0.609348
8.4439
-0.858328
-9.9594
7.79592
2.16348
-2.27967
1.31718
-11.4804
8.77481
2.7056
-9.0959
8.67344
0.422454
-10.0539
4.82264
5.23124
-12.3284
7.02095
5.30743
0.0625128
0.303253
0.127534
-0.430787
-7.22604
9.38236
-2.15632
-3.12523
-4.30941
7.43465
-11.8505
7.6622
-6.36826
8.46998
-2.10172
1.02624
9.79981
-1.69536
-0.584304
-9.68268
3.31441
-11.134
3.44317
-9.80116
1.59059
8.71949
-10.0386
-9.16745
1.50829
7.65915
-7.64781
-1.4383
9.08611
8.64768
2.72076
2.91712
7.40037
-10.3175
-3.55405
-5.87105
7.74006
-8.06419
-6.53822
7.10311
-2.00969
-7.67299
0.745524
-8.98082
8.19724
-2.50263
-5.69462
10.9096
-7.17257
-3.73701
-1.68171
-1.37289
-8.20599
11.1231
-0.101581
-8.94734
-8.86452
9.49284
-0.628318
-10.074
5.55438
4.51957
1.73707
5.20857
-6.94563
0.345533
-9.21005
-5.61436
10.083
-8.70198
1.89505
9.50913
-1.89877
-7.61035
10.7272
-10.7272
11.1154
-3.11894
-7.99649
-2.80687
-3.23729
6.04416
2.30531
-1.52507
-0.780242
-5.24353
2.43665
-0.24018
-2.91713
3.15731
8.78246
-0.69401
-8.08845
10.0848
-0.501759
-9.58305
-0.554845
11.0646
-10.5097
-10.4972
6.32549
-8.65384
-10.0517
-1.1189
11.1705
-6.62766
-4.85275
-12.4011
2.70504
-10.6574
1.426
9.23145
-9.64474
2.6007
7.04404
0.00909526
-7.15091
0.363266
-6.47783
0.0150034
6.46283
5.80503
3.7041
8.69958
2.15378
-6.17369
6.03829
-9.61215
2.2368
7.37535
-2.8347
-6.49705
7.63321
1.81926
-9.45248
-0.00755672
-7.6894
7.69696
9.87959
-0.27335
6.14947
-11.7901
0.221472
-0.278449
0.0468433
-10.7043
-4.66802
7.31563
-4.39701
7.59835
-2.30507
9.02474
-6.71967
7.18777
11.025
-3.39182
-9.90654
-4.64706
2.73365
-2.97383
1.44772
-11.3543
4.54916
-12.2093
7.66019
1.96447
-9.15312
2.13925
7.67316
-9.81241
-7.1841
0.840331
6.34376
-12.8262
4.05412
3.17777
-10.3619
-11.9132
10.6313
1.28181
-1.97385
8.73665
-6.76281
-9.79244
14.6379
-4.84547
-3.35308
14.981
-11.6279
-10.3622
2.24208
-3.02707
0.784995
-9.49816
-1.17251
-4.24846
7.21088
5.77833
-3.73742
5.94647
-11.3068
5.36033
0.194157
-8.74821
8.55405
-7.7663
4.37537
-10.0045
1.53097
8.47351
5.41167
2.48483
-7.89649
9.22619
-3.87546
-5.35073
-11.7636
7.89704
3.86652
-10.4847
9.27828
-0.495812
7.1287
3.1889
-10.3176
6.90629
-8.99314
-6.22077
-5.54279
7.45921
-0.195158
0.71917
-0.524012
8.89017
-8.89017
-5.99552
5.04984
0.945678
0.563814
-0.758972
7.20708
2.01912
-7.44899
-3.99565
1.85528
-0.766546
-1.08873
4.04766
-9.02627
4.9786
7.98335
5.10945
-13.0928
5.0011
4.52364
-14.1319
3.73137
10.4005
-17.018
4.00054
6.6204
-5.41935
10.8946
-10.8946
-0.564208
-8.33347
8.89767
-6.39462
-0.756288
3.47556
-9.87018
-0.258811
-2.32282
8.52691
-6.20408
-10.1507
7.82784
5.13123
-12.084
1.09428
-10.24
9.14573
8.14507
-8.2025
8.23397
-6.31615
-8.6939
9.78818
1.96986
-0.114587
-9.21485
-6.23548
15.4503
0.478039
7.56033
-6.43267
-12.2298
3.01495
3.69924
-9.87184
-4.48209
-7.91897
4.03303
-7.15826
-4.35013
-2.09533
6.44546
-0.153842
-9.22799
9.38183
-2.85848
-12.3704
15.2289
-9.21505
9.21505
-3.67135
-7.15947
-9.55975
9.55975
1.75707
-1.75707
11.4845
-5.47206
-6.01239
9.78941
-10.3156
0.526224
-7.90471
5.2872
2.61751
-7.9137
8.43234
-7.04723
4.88128
7.54154
1.50913
3.00508
8.11035
1.02962
1.27569
-9.64457
9.64457
-5.1113
-2.9231
8.0344
2.98614
-8.77857
8.22372
-0.870655
-0.207292
1.07795
2.97362
-6.84112
-4.5854
5.96326
-8.20405
6.67397
1.53008
-9.20681
2.58966
1.88774
-1.19045
-0.697293
-9.01655
9.56895
6.76653
5.59473
-2.84481
-7.98454
-4.78442
-3.18672
7.96067
-3.60496
-4.29975
8.23227
5.36332
10.1995
-2.04914
-8.15037
6.34262
5.01644
11.8551
-7.4111
-4.44399
-0.327796
1.62933
-1.30154
3.09411
-8.13099
9.50746
-5.7768
-3.73066
6.6858
-9.40945
2.72365
-0.254018
0.810602
-0.556584
-9.9851
10.5402
1.83746
-8.62883
6.79136
-13.3146
7.30876
6.00582
0.0815959
-9.24904
7.48814
4.00211
-6.89225
-9.12954
9.14497
-0.0154275
-9.79244
7.84032
1.66715
-0.503598
0.503598
-7.22548
6.69099
-0.344315
0.1693
0.175015
2.55922
-8.879
-6.11243
10.187
-4.07453
-10.2434
6.80614
3.43722
-2.33608
-7.62777
9.96385
15.0016
-15.0016
-10.4382
8.10214
8.58948
-11.4361
2.84661
0.00619458
8.58329
0.0274684
-9.12336
3.18324
-0.941166
-3.60766
10.0793
1.49094
0.396807
-8.5537
3.4424
1.77964
-2.62724
-3.36828
-10.39
-1.17179
11.5618
-1.80738
-8.73241
10.5398
6.06844
-10.9517
9.67379
-9.67379
8.43355
-9.29993
0.866373
5.1245
5.41389
9.58767
3.52422
-2.28559
-1.23863
8.19488
-2.95613
-5.23875
-6.36764
-2.07177
8.43941
10.6665
-6.81874
-3.84777
1.06672
-8.69449
-10.0993
4.84749
1.95062
-8.06304
-5.30044
-4.03944
9.33989
-9.22456
7.58276
1.6418
1.83869
-0.45863
-1.38006
-4.61876
-1.3241
5.94286
-8.26383
0.350134
-1.05472
-8.94976
15.4351
-14.3302
-1.10487
1.33112
-0.792949
-0.538172
3.90873
8.87199
0.984023
7.15842
8.08155
0.542997
-8.62454
6.46715
-8.56225
2.09509
-7.35015
3.20048
-9.35693
-5.04663
10.3795
-5.33288
0.216383
7.27512
-7.4915
-6.58022
11.4085
-4.82826
8.7489
-8.7489
-4.84418
1.51656
3.32763
-10.1741
4.02602
6.1481
11.3529
-3.77776
-7.57511
1.13394
10.2189
-4.20558
11.9892
-7.78361
-2.55984
-3.98082
10.159
-6.17821
-10.1769
-0.471432
1.17741
-0.894741
-0.282669
-0.1693
0.0843012
0.0849991
5.65004
-9.85562
1.73383
-7.55498
-2.1377
2.74061
6.32334
4.78736
-11.1107
-1.69197
9.27
-7.57803
9.25166
-11.1231
1.87145
0.263091
-8.22111
7.95802
-5.40841
7.54765
-2.42559
-5.77847
-7.8196
-0.330494
7.84328
6.36934
0.308311
10.538
-10.538
10.826
-2.79518
-8.03085
9.18088
-7.59528
7.81167
11.1107
0.266654
-9.06091
1.76562
7.29529
-7.75949
9.4998
-1.74031
-6.77497
-3.31035
10.0853
2.91094
6.34073
-4.17523
12.0205
-7.84531
6.26227
5.48936
-9.66459
-9.80248
5.15914
4.64334
8.54563
-9.16628
0.620647
8.68642
2.62906
5.19167
-8.95111
4.96585
3.98527
-0.1693
2.52197
-9.10219
5.85831
5.05127
15.9824
-18.0297
-11.5468
-0.0604356
11.6073
3.67756
8.17753
-9.7001
9.7001
8.57356
-1.80802
-6.76554
4.83605
-10.1365
1.31341
4.32688
-8.2731
0.810381
-4.17411
3.13126
5.75891
0.574333
-8.06673
7.4924
0.758902
8.20138
-8.96028
-7.62031
-0.779312
8.39962
-11.0531
9.04337
-8.16974
3.28197
4.88777
0.0326666
-0.495832
0.463165
-6.43355
10.2635
-3.82999
-6.77615
0.545917
6.23024
1.49575
-7.9293
9.74848
-4.33681
2.2401
-10.1778
-7.33399
9.15325
-10.9832
14.6513
-3.6681
5.50102
-10.6847
5.18364
8.99629
-8.51053
-0.485761
-1.2517
6.96271
-13.0181
2.62814
-6.75691
6.74936
2.04931
10.9148
-2.34122
-1.4646
7.57197
0.179021
-7.79933
9.39467
-2.80748
-6.5872
-2.9695
2.9695
10.4167
-12.1076
1.69091
2.78366
8.04558
0.93249
-8.97807
-9.56182
6.344
7.45659
3.20993
1.61974
5.16946
-6.7892
-6.86027
2.24151
10.3218
-10.3218
-0.411608
10.4895
-16.4147
5.92527
2.40788
-9.46954
-4.47428
-4.69066
9.16494
-4.66805
-3.51442
8.18247
-9.90312
0.101399
-2.74137
-7.16175
7.77826
2.4087
3.57288
-9.87317
6.30028
16.8835
-6.28733
-10.5961
7.06327
-11.6649
4.60159
-6.37279
-6.94179
-5.27636
8.84924
3.20995
4.11658
-7.32653
-7.4574
-1.52659
8.98399
-4.36559
8.91476
-2.93385
-7.8207
10.7546
-1.47403
-2.4992
3.97323
-9.53127
6.58625
2.94502
6.93576
-8.90961
2.5694
4.25904
9.09472
-9.09472
-3.49828
6.70823
-15.3879
14.1006
1.28727
8.38092
-6.81697
-2.13415
3.09913
7.17378
-10.2729
-8.89643
9.77148
-0.875055
6.58848
-5.3442
3.90658
-7.8874
-5.29252
4.69096
-7.88064
10.3051
-8.35449
8.79871
3.93186
-13.8975
12.1101
1.78732
10.1233
2.98229
-1.1371
-7.39376
8.53086
-7.28333
9.12079
6.18984
-14.6233
8.43344
-9.42363
8.28654
-12.0288
7.35096
4.67786
6.62242
-13.4348
6.81241
7.23708
-7.51949
15.2937
-7.31035
0.316388
-7.77379
-6.03129
-4.21208
-8.27114
2.23503
6.03612
11.7872
-8.82982
-2.95742
7.32757
-12.971
2.8695
10.1015
6.48162
-0.764908
-5.71671
9.12808
-9.12808
11.9421
-10.8533
-1.08882
-13.129
8.76573
-1.52865
15.3451
-15.3451
1.56025
1.77833
-3.33859
-8.10326
4.2833
3.81997
1.28417
-10.2766
8.99244
8.12474
-6.75547
-8.6043
1.21053
6.07642
-9.01027
0.601829
-1.47248
4.70306
-1.59723
-11.2547
1.48217
9.77257
-4.64013
-4.79769
13.5784
-10.5478
-3.03062
9.4236
-3.92259
1.05038
-11.6319
10.5815
5.62341
7.11528
1.08197
0.194801
-7.59453
7.39973
-15.6291
13.7643
1.86475
-0.364247
0.364247
-0.810634
8.34256
-7.53193
-11.183
-1.14534
-2.04803
-6.3299
2.39721
-8.88065
6.48343
2.1572
-8.52484
-10.2486
10.2486
-9.3927
10.8907
-1.49798
9.85744
0.924857
-10.7823
-14.5346
11.6761
10.4976
-9.93216
-0.565478
-8.20009
-4.7277
-0.165201
-7.61475
7.77995
-14.1319
7.16237
-6.51898
6.71378
11.1992
-4.57676
8.11337
2.38427
-6.80617
-3.15323
7.78465
-8.17218
0.387534
-7.7661
0.398079
7.36802
-5.49682
-2.26927
-1.25206
2.81231
-0.39488
-8.19309
8.58796
9.85374
-9.55254
-8.01678
7.6219
-3.01532
6.64806
-3.63274
1.3782
8.49274
3.32788
-6.3432
7.7226
-7.82418
-10.6101
7.03176
3.57838
-4.92054
-9.19079
9.19079
9.32171
0.467703
-7.34201
-8.37455
0.750886
7.62366
10.0861
-2.36345
8.60694
-2.06935
6.63962
-11.665
5.02535
-0.445796
2.22413
-3.58666
2.3346
-7.22881
0.750977
5.73486
-7.49669
1.76183
-3.30565
4.50133
-1.19568
-3.01349
-5.22605
0.540845
7.10332
-7.64417
3.80433
1.08098
7.4905
8.12217
-0.63403
-3.23867
-6.29261
-12.4083
11.001
1.4073
3.05921
5.6897
0.946804
-7.28059
6.33379
-0.490468
0.0466453
1.86472
8.55201
7.26334
-8.78993
6.09731
-12.2705
6.17317
-0.946292
8.70487
-7.75858
-6.25215
10.6939
-3.43058
-2.93103
9.02833
-0.810087
7.39576
-4.40182
-8.13777
-9.93281
0.948484
-3.3116
-3.25959
-6.44051
-8.0336
7.25242
-15.1776
2.45643
12.7211
1.64088
-0.3237
-6.81587
9.21308
-0.133907
-9.13181
9.26572
6.15705
-5.6162
10.0837
-7.19423
-2.88942
0.336676
6.14494
-9.38691
9.38691
0.483363
-8.36857
7.8852
-9.01001
7.68923
1.32078
7.49976
-9.60148
8.53241
-11.2205
2.68811
9.0497
-16.7909
7.74118
0.0696142
8.46279
-6.52103
10.4994
4.10505
-7.58923
-2.98914
12.0388
10.4397
-2.83669
-7.60303
-5.60943
-0.883708
6.49313
-7.35988
10.6753
4.00057
6.84554
-4.61851
-6.48043
11.0989
6.83697
2.7946
-9.63157
-15.1637
11.2334
3.93029
-1.56
-1.23081
-8.31655
8.31655
-4.81427
9.38212
7.21043
3.22929
-4.05985
-3.73417
7.79402
-6.3003
-2.19751
7.26797
-6.84639
-2.16362
-1.04358
14.505
-4.67922
-9.82581
6.33984
-10.3997
-2.82274
4.52259
-1.69984
-13.934
5.48696
8.44708
9.13997
-7.8558
-3.08505
-5.81343
8.89849
0.228424
-9.67948
9.45105
-8.77562
5.69057
0.633172
-6.63686
6.00369
-4.16378
-11.4653
9.39467
-5.53557
5.23518
6.38701
-9.12748
2.74047
-6.81013
-1.50642
-3.76874
-4.50241
-1.40544
8.04506
-2.50915
8.65862
15.8438
-10.5934
-5.25038
-2.00677
8.39378
-2.71425
-4.11338
6.82762
13.1027
-10.4278
-2.6749
-6.67479
7.02856
5.54561
-9.38551
14.6269
-5.24141
11.1173
-2.73896
-8.37832
-0.88492
8.24017
-7.35525
-2.67417
-6.97039
10.5703
-2.44812
11.6299
-0.51266
-11.2333
4.55849
-3.55838
-11.4661
-0.942202
-4.76994
-8.47483
13.2448
2.10017
-8.51929
6.41911
-12.0014
8.27172
3.72969
9.8999
2.54742
2.29743
-9.0724
-4.12136
-0.647279
4.76864
-2.751
-6.80875
-6.75759
-2.49097
9.24856
-7.69684
9.53817
12.099
1.00372
-8.57629
0.879446
-3.98236
-1.74519
8.74264
-0.697056
8.82424
-0.536804
-8.28743
-10.8811
12.7821
-1.90101
3.72372
5.81444
-9.22439
2.89923
6.32515
-1.85534
-9.02573
-4.62435
7.40039
1.37768
5.30812
1.28142
-0.907716
-0.373705
10.7624
-10.3817
-0.380713
-11.7771
8.29066
-0.345542
0.856136
-0.510595
8.53537
1.81594
15.6477
-15.6477
-8.54038
-3.51753
10.5016
-6.9841
-0.8814
-7.31515
8.19655
-3.27429
7.04568
-3.7714
7.72265
-2.96109
-4.76156
-3.15768
-6.95778
3.83709
7.05224
1.07788
2.77231
-3.85018
8.01735
3.92478
-8.93
1.85133
7.81669
6.6243
-6.14093
-5.08409
8.80781
8.05405
1.61062
1.26528
6.78877
-8.52571
-6.95748
11.4808
-4.52332
4.73371
-12.3357
7.60203
10.4018
-3.17709
-7.22468
-5.59826
-1.68248
7.28074
3.85424
-8.32852
-6.13958
6.41335
-8.62628
3.99118
4.63511
-8.70648
2.41343
6.29305
-1.15276
8.28146
1.8425
6.98247
-8.67444
1.26908
8.78707
-10.0562
11.4943
-10.8464
-0.647921
0.456409
7.15119
-7.6076
5.8109
3.18539
-9.81824
-1.84674
-8.88409
-1.29002
8.52814
-7.66943
-0.858714
-14.014
12.8422
7.40554
-5.08551
-2.32003
-8.14934
2.53991
-7.24392
9.7296
7.11967
-9.19144
11.0646
-0.865111
3.80302
-5.89835
-9.37652
10.6456
-6.67772
9.01365
-2.33594
-8.1733
4.98658
-9.88668
0.463041
-0.246845
10.6486
-7.80353
-1.84121
0.544241
-7.57187
9.40989
-16.398
7.01251
9.53223
1.87625
11.385
-6.34103
-5.04394
11.4642
-0.0792643
-4.02965
-7.64725
-7.1435
5.09436
8.92087
-1.96538
-1.52443
-8.50499
10.0294
4.66568
12.2178
-9.18287
6.55835
2.62452
-1.21813
-10.0982
11.3164
10.2273
-8.24007
-1.98727
2.43408
-9.71973
-8.13435
-0.145678
-8.5224
-7.1199
1.78108
-9.00713
-14.486
1.87261
12.6134
-9.82631
9.82631
7.35722
8.63742
-9.88132
1.2439
-2.62598
-1.97551
-7.20736
-7.41484
-1.19761
9.83504
3.96827
-3.30766
-7.31749
3.07072
6.60307
6.57411
-6.1177
0.472668
-0.169415
-8.62628
8.77157
-0.576749
-8.19483
11.9089
4.45852
-8.51548
9.74134
-0.969762
9.66059
-11.971
2.31039
0.151471
7.59164
-7.74311
-1.40642
-6.77321
8.17963
7.8521
-6.11504
7.88087
-7.7294
-12.2728
3.48493
-9.24266
-1.00594
-9.03688
8.93591
0.100972
7.15772
-6.95665
-5.31616
-11.7899
-3.59801
-6.93294
8.0643
-5.15336
-12.3965
8.23923
-5.5775
-0.294985
5.34429
-5.04931
9.31963
0.695404
-10.015
1.63352
5.01903
-6.65255
-11.7157
0.461003
7.60029
-6.09284
6.66717
10.394
-10.394
10.4744
-15.2443
-11.014
-4.8384
-4.34282
9.18122
-5.76371
-3.64575
7.04403
5.87361
1.25145
-5.44533
4.19389
-9.17519
4.50715
6.07604
-9.59657
2.3705
7.22607
-3.48091
-5.26418
8.74509
-5.98071
5.17062
-9.02652
-10.6467
-0.214054
10.8608
7.66218
1.39364
-9.05582
10.348
-9.95619
-0.391837
2.73687
-9.69435
8.09643
3.30458
4.70483
4.32694
-9.03177
9.49193
-0.221928
-1.7113
-5.82487
6.33076
0.298327
1.34462
7.197
-8.54163
-9.61215
9.92051
-1.67309
-8.24742
7.15891
4.44382
-11.6027
-7.64789
12.3816
11.9079
-4.57604
-7.33191
-4.08767
-12.6547
16.7424
0.413027
0.566195
-0.979222
6.11594
-12.3615
6.24554
10.1232
-8.57122
-1.55199
-10.1511
1.85677
8.29432
-11.4623
0.121344
1.1778
0.153325
10.895
-3.04826
-7.8467
3.72928
6.80875
-3.01619
9.13213
0.336897
-10.488
-0.447092
-7.07452
6.12983
0.944683
-7.4024
-4.59901
-0.70986
-2.25965
-15.5771
17.488
-1.9109
-9.21016
8.79784
0.412323
-3.9812
-6.74672
6.11515
9.31995
0.352085
0.825325
-11.414
11.5615
-9.0395
-13.8547
7.84495
6.00971
-3.71798
15.8211
5.21308
6.69487
3.12255
-9.81933
2.05984
-10.5041
3.35505
7.14907
-3.88371
-10.2384
11.0154
-0.777063
-6.60963
-2.30269
3.01671
-8.17294
-8.56707
8.43512
0.131954
-2.49664
-5.65981
7.22856
-8.76787
8.76787
-0.364943
-8.20213
10.0848
4.64821
4.39665
-10.08
5.68334
9.14904
8.44274
-8.40626
-0.0364746
-5.42103
5.89907
-14.677
4.51047
3.02237
7.70482
9.15118
-8.68161
-2.74927
-11.6234
6.73489
4.88848
-6.64504
-2.57001
10.2449
-10.2449
9.81134
-4.23829
-5.57305
-1.8906
6.85644
-8.23987
7.04028
1.19959
-9.68635
9.68635
7.34261
3.41981
3.04445
4.84991
-7.89436
0.361369
-0.615386
7.1332
-5.49968
6.62616
-9.49788
3.56146
7.26457
-1.88746
-5.56154
-10.3344
11.2313
-0.896848
8.40163
1.40971
9.33349
0.0864516
-9.41994
-11.7799
8.84172
4.73856
-15.0152
-10.7661
5.92644
-7.70138
-4.07857
9.01841
-1.75044
-8.86685
11.4676
-16.41
9.05017
3.2468
-11.9612
8.71442
7.92926
-5.77206
-7.30191
10.3641
-9.22445
2.42344
6.80102
-11.0717
-2.78299
-3.77754
-2.99335
6.77089
5.1231
6.90041
9.15089
-1.94381
1.91028
7.2406
-2.70378
6.5068
-2.91226
8.46664
8.75299
-8.02484
-0.728142
-7.85472
-3.19833
-3.73112
8.43595
-3.2465
13.736
3.58162
-10.1198
0.629382
2.74872
-6.52626
-9.96351
3.57065
7.18336
1.01151
2.65736
2.41159
-5.6692
3.25761
-9.12371
0.157601
8.96611
-4.54949
7.91934
-12.0726
7.78012
4.29244
-11.533
-0.539572
10.2763
0.423033
9.34016
-7.50227
-1.83789
10.7779
-2.98199
10.1314
-10.1314
-7.65802
-1.56644
1.26971
6.28535
-7.55506
12.2799
7.87708
-6.60737
1.00899
7.70466
-8.71365
3.8659
5.15884
10.723
-5.15652
-5.56653
-8.63115
0.983343
-3.29896
-5.47755
-9.52533
11.8317
-2.30636
-3.29525
-10.6877
-2.9338
10.3732
-0.626024
6.38719
-9.19771
2.81052
-6.76704
-4.04457
10.8116
8.06582
-0.354632
-7.71119
1.62597
8.23147
8.24135
0.286789
5.99048
-6.1366
-4.74902
-10.7246
4.23567
6.48895
-8.14905
7.08558
-7.24446
-7.79079
-2.93383
-8.86373
6.99982
1.86391
9.18053
-6.37005
-2.81048
-9.34865
8.4151
0.933556
8.02061
-0.0312171
0.397077
-0.269542
8.41041
-0.337015
0.337015
7.10969
3.44537
6.14707
-10.5119
4.36483
-0.394631
-5.11551
9.24731
-8.21473
-1.03259
4.80268
4.44463
5.69403
5.7702
-11.1152
-5.29487
0.302306
0.979115
-10.1844
4.48885
5.69552
-7.80981
-2.16169
9.9715
8.71506
1.20545
-8.21604
-1.08389
-0.302038
-8.43948
5.60475
3.48671
-9.09146
-0.589162
-4.52048
5.10964
10.5765
-4.30046
-6.27608
0.786056
-9.68248
9.90778
2.08141
4.16283
5.74495
8.59067
-4.22832
-4.36235
2.59767
6.49705
12.1384
-12.1384
-13.4969
10.1466
4.83439
-15.911
10.5868
5.3242
-9.09349
8.1845
0.908983
9.37875
0.922666
-10.3014
4.86436
-7.85771
-8.6884
2.04464
6.64376
9.25982
-0.948013
-8.3118
10.2283
-3.60403
8.42878
1.79955
3.28968
7.60491
-1.88226
8.29617
1.33784
-9.63401
0.123243
9.05728
7.45098
-0.341284
8.8771
-3.6827
-5.1944
-0.00836576
-0.19094
-2.0251
-7.7883
0.881139
-7.85474
6.9736
9.93235
-11.1849
5.92232
-7.92248
0.282004
7.64048
-9.31647
1.39399
-10.1319
-4.09957
14.2315
-2.69287
10.989
3.12771
0.648629
8.00595
-8.65458
6.37948
0.370087
-7.95135
8.59998
-6.90035
2.77899
-5.97029
-2.23614
8.20643
1.67292
-7.64321
-12.6115
11.973
0.638546
7.83875
-6.62299
4.75444
-6.6419
9.87319
-8.53698
-1.33621
7.92127
9.12003
-3.91146
14.505
9.84791
-4.24316
5.0781
-2.50871
2.64999
6.47809
10.9448
-3.76167
8.00842
2.93636
-8.31037
9.09761
-0.787244
7.33699
0.410728
-7.74771
-7.87962
-2.21968
-0.991227
16.5358
-10.187
-6.34873
-13.5131
12.9857
0.527372
-9.21341
-0.398737
0.574433
-9.98355
9.40912
-6.04244
-1.00479
6.42993
-9.18823
2.7583
-7.66312
11.3945
10.6749
-5.81044
-4.8645
-7.12278
4.03124
3.09154
9.13976
-6.01467
-5.30027
-4.50221
-6.06273
-4.70338
2.09547
-2.77513
-3.26751
9.24263
-5.97512
8.09382
-6.7492
10.8049
-10.8049
-8.18541
-0.980867
-13.1356
8.36681
4.76877
-9.00239
-4.13319
6.19058
-5.83972
-0.350865
2.02843
7.11133
-7.81957
-1.68427
9.71336
1.44024
-11.1536
0.762577
2.42067
11.9625
-6.58739
-5.37516
0.99741
-1.07118
0.0737739
7.09096
-4.99079
9.055
-2.21803
-5.42162
-6.11137
-2.86551
-5.84097
8.18231
-8.18231
0.622766
9.02581
-9.64858
5.77145
-3.27427
-6.3223
9.24592
-3.29944
-8.70365
0.324335
3.15149
-2.38892
13.9057
-8.35127
-5.55444
7.45215
-8.97658
-10.9138
5.39467
5.51912
8.53197
-0.450421
-4.6844
-4.72341
-11.1876
-11.6274
9.17868
2.44869
-9.44407
-1.20264
10.204
-1.76724
0.651951
-0.651951
4.76294
5.61029
-4.9562
8.93884
-3.98264
-3.23683
-1.45278
8.99872
-7.54594
2.8268
8.04673
-7.88134
10.8237
-12.3181
-3.22118
6.01175
2.94994
-9.56672
-0.503919
3.29568
-7.98713
4.69145
11.1942
-3.15389
-8.04033
1.73781
-0.773263
-0.964543
0.76554
8.24502
9.80711
-9.82194
5.47723
4.34471
-12.939
12.939
-2.87793
10.0368
-0.43432
-7.37535
-9.27726
10.6475
-1.37028
-3.10894
-7.12731
0.974995
-1.30279
0.565506
-9.19345
8.62794
-8.41592
-6.11866
3.47199
3.87418
-7.34617
-3.81152
4.8894
-2.08287
7.16635
6.22165
-0.0310665
-0.763998
7.15119
9.82671
-9.82671
7.56043
-4.08844
-16.2014
11.5418
4.6596
-5.76474
-6.02145
10.2756
-4.25419
10.5277
-8.76669
-1.76097
4.89334
5.63432
-6.75699
7.94601
-1.18902
-13.9541
8.40739
5.54671
-5.42367
8.11504
-8.2878
2.86413
-5.9083
7.95294
11.0482
-7.30132
-3.74687
-1.43747
1.43747
6.16773
-15.4486
9.28091
2.11606
-2.82592
8.67551
2.37267
7.87056
-10.669
2.79841
2.50793
0.722373
-3.2303
9.16252
2.19665
5.29856
-5.29856
0.384016
7.42565
7.54414
4.41841
-9.71124
1.75171
7.95953
-8.18713
-1.55398
-8.43184
9.98582
7.75409
-6.76646
10.0707
-2.55796
-7.51272
-1.30711
4.01344
-6.25324
4.80093
8.56963
-5.15305
-6.24722
6.17924
-8.65024
2.471
0.654097
0.213357