/*--------------------------------*- C++ -*----------------------------------*\
  =========                 |
  \\      /  F ield         | OpenFOAM: The Open Source CFD Toolbox
   \\    /   O peration     | Website:  https://openfoam.org
    \\  /    A nd           | Version:  9
     \\/     M anipulation  |
\*---------------------------------------------------------------------------*/
FoamFile
{
    format      ascii;
    class       volVectorField;
    location    "0.1";
    object      U;
}
// * * * * * * * * * * * * * * * * * * * * * * * * * * * * * * * * * * * * * //

dimensions      [0 1 -1 0 0 0 0];

internalField   nonuniform List<vector> 
97292
(
(0.0716925 -0.913205 0)
(0.0404772 0.85619 -2.58491e-21)
(-0.0126096 -0.916915 2.19e-19)
(-0.0266255 -0.928546 -2.41128e-20)
(-0.138133 -0.919515 -2.08462e-19)
(-0.0379997 0.835279 9.04833e-25)
(-0.0101246 -0.867827 9.21241e-20)
(0.0210154 0.861059 -2.85642e-21)
(0.697842 0.555613 -5.98449e-21)
(0.0166342 -0.853849 -9.40457e-20)
(0.288048 -0.849343 0)
(0.280175 -0.847203 -4.99966e-20)
(-0.00603114 -0.828716 0)
(0.0475082 -0.939451 -1.63878e-19)
(-0.0474504 -0.968365 6.71002e-20)
(0.0356616 -0.829345 -5.28218e-20)
(-0.0329351 0.719646 -1.66493e-21)
(0.695801 0.705697 5.11808e-20)
(0.884717 -0.112427 6.40028e-20)
(0.324355 -0.993376 2.81412e-22)
(0.0152282 0.732286 5.4036e-23)
(0.0100682 0.818552 7.24946e-21)
(0.0503467 0.864861 2.75409e-21)
(0.0408954 0.841254 0)
(-0.00524402 0.844721 5.1278e-21)
(0.0618916 0.86473 -1.31019e-20)
(0.0201832 0.967486 -8.41261e-22)
(0.00340684 0.960397 -8.0127e-24)
(0.0202045 0.784356 -1.598e-20)
(0.012532 0.83209 -4.17216e-21)
(0.559029 0.646813 2.41942e-20)
(0.315569 0.856341 -1.36494e-20)
(-0.041966 1.01915 9.55374e-22)
(0.908033 0.0487337 6.00521e-20)
(0.307899 -0.982071 0)
(1.33694 0.767244 0)
(0.529714 0.895868 0)
(1.48371 0.340816 -6.03928e-20)
(0.373842 0.774275 0)
(1.19449 0.700709 0)
(-0.00630023 0.895107 0)
(0.0143174 0.874984 -7.28591e-22)
(0.373464 0.710955 3.32622e-20)
(-0.153322 -1.00442 -1.20616e-19)
(0.100865 0.913976 0)
(1.20267 -0.145736 2.24869e-20)
(1.0946 -0.369834 -2.30841e-20)
(-0.0147308 0.91784 1.20915e-20)
(0.00747475 1.03498 1.05146e-20)
(0.0629099 0.767707 0)
(-0.0122224 -0.954265 0)
(1.09334 0.424024 -8.84517e-20)
(0.0820963 0.278555 0)
(-0.0288861 -1.02798 -5.00976e-20)
(0.710117 -0.923635 -1.24941e-19)
(0.537905 -0.512538 -2.2012e-20)
(1.4771 0.751638 5.6428e-20)
(0.0648221 0.813472 0)
(0.0482209 -0.863967 1.0662e-19)
(0.789362 -0.353156 0)
(0.0275745 -0.98691 -1.51793e-20)
(0.566696 -0.52649 -2.12819e-20)
(-0.0189585 0.879806 -8.80844e-25)
(-0.0297886 0.836861 0)
(-0.0345518 -0.967487 -1.57826e-19)
(0.672188 -1.01219 -4.00197e-20)
(-0.0486204 -1.01525 0)
(0.0588865 -0.93501 -4.94945e-20)
(-0.0574348 0.889536 -1.52848e-20)
(0.0804207 -0.00946177 3.50904e-20)
(-0.0126846 0.879179 0)
(-0.0574552 -1.00967 0)
(1.22599 0.0564964 0)
(0.063782 -0.957815 -6.98524e-20)
(0.0313069 -0.0102037 0)
(0.0677992 -0.905139 -1.05892e-19)
(0.943099 0.0763448 0)
(-0.00918876 0.943959 1.78084e-21)
(0.0689198 0.903255 -4.10126e-21)
(0.286899 -0.763925 5.18093e-20)
(0.0180887 0.954084 0)
(0.158896 -0.9156 1.05122e-19)
(0.0261151 -0.823351 4.94758e-20)
(0.00736801 0.921423 -3.44242e-22)
(0.318053 -0.967448 5.57599e-22)
(0.409317 -1.0958 0)
(0.135745 0.132207 0)
(-0.0329233 0.93306 -1.57482e-20)
(0.428909 -0.402049 0)
(1.11609 0.879385 -2.39438e-20)
(0.0274928 -0.0214652 1.51895e-20)
(0.00987339 -0.902907 2.32888e-20)
(0.271974 0.0553141 0)
(0.233943 0.266531 2.12732e-20)
(-0.0434968 0.86976 2.65876e-21)
(0.0367097 0.83239 9.81519e-21)
(0.0128454 -1.07859 1.42668e-19)
(0.189981 -1.14429 -4.53727e-20)
(-0.0502008 0.870658 0)
(0.620777 -0.408257 0)
(1.06096 0.302762 0)
(0.423304 0.753758 -1.86602e-20)
(0.364691 -0.692981 -4.24525e-20)
(0.117135 0.13035 0)
(-0.0912157 0.938506 -5.09552e-21)
(0.417437 0.539327 1.55993e-20)
(0.0136059 0.880576 1.14815e-22)
(1.14587 -0.100194 -6.39953e-20)
(0.0404235 -0.930014 1.24666e-19)
(0.587497 1.0251 -5.25423e-22)
(0.536584 -0.486736 5.21186e-20)
(0.063474 -0.940813 3.23108e-20)
(0.0329727 0.908283 -2.99958e-21)
(1.01924 0.376688 0)
(0.00606991 -0.96184 -5.51268e-20)
(0.160848 -0.872387 -3.52961e-20)
(0.0707487 0.866795 0)
(0.0690947 -0.846699 -5.90678e-20)
(0.0243855 0.872189 0)
(1.05268 0.13003 -1.15321e-19)
(-0.0561479 0.972235 -7.85862e-22)
(-0.0229123 -0.932846 0)
(0.0421343 1.04596 6.20586e-21)
(0.125181 0.0839708 1.29984e-20)
(-0.126767 -0.965904 -4.16575e-21)
(0.209542 0.636889 2.64857e-22)
(0.101923 0.067102 1.15642e-20)
(-0.125531 -1.00523 0)
(1.41848 -0.0624103 0)
(0.203418 0.662042 1.03519e-20)
(1.06256 0.772764 9.47005e-23)
(0.0327364 0.823126 5.41881e-21)
(-0.00255507 0.910346 0)
(-0.0389896 0.86067 1.5025e-22)
(0.577657 -0.554088 2.15411e-20)
(0.216929 -0.971963 0)
(-0.05074 0.896369 2.00387e-20)
(0.873506 -0.441697 4.50808e-20)
(0.1348 0.445379 0)
(0.275894 0.0674465 -1.31935e-20)
(-0.0580339 -0.897549 4.77576e-20)
(0.00220335 1.02823 -1.61458e-20)
(-0.0226286 -1.01891 -1.07455e-19)
(1.07964 0.733137 0)
(-0.0254699 -0.952005 0)
(1.01284 0.676664 1.13847e-20)
(0.142107 -0.969474 3.29706e-20)
(-0.0132371 0.918334 1.11994e-20)
(0.719394 -0.355936 -3.36722e-20)
(0.0355352 0.846549 -3.14601e-22)
(0.0970267 -0.756865 1.67714e-19)
(-0.0141828 -1.03802 -6.99657e-20)
(0.0813615 -0.955105 -1.243e-19)
(0.419976 -0.9856 -7.8135e-20)
(-0.0445936 -1.04322 0)
(0.852317 0.69211 -1.40485e-20)
(0.0728961 -1.17898 4.87078e-20)
(-0.0377994 0.883696 3.38731e-21)
(-0.177935 0.921483 -6.36136e-21)
(0.502968 0.541944 1.53327e-20)
(0.0783185 -0.950695 2.83746e-20)
(0.0048835 0.932883 2.18593e-22)
(-0.0882381 0.844227 -2.20988e-20)
(0.0376359 -0.0126113 0)
(0.825903 0.72555 -1.91254e-20)
(-0.112518 -0.834718 -5.88734e-20)
(0.12501 -0.8783 -1.47878e-21)
(0.0400019 -0.0228416 0)
(0.128 -1.08223 -1.19711e-19)
(0.431629 0.622127 -7.30858e-21)
(0.628045 -0.433617 6.39226e-20)
(1.23566 0.603238 0)
(0.0683823 -0.929965 -4.95734e-20)
(1.18862 0.327883 8.27093e-20)
(0.025419 0.902901 0)
(0.572182 -0.520763 6.86878e-20)
(1.12819 -0.485851 8.46358e-20)
(0.787226 -0.436414 0)
(0.312117 -0.337882 3.2939e-20)
(1.11699 0.675305 5.27397e-20)
(-0.0211003 -1.00357 1.09678e-19)
(1.39071 -0.43457 8.53248e-20)
(0.0614536 -0.0422895 1.73684e-20)
(0.0110541 0.863007 7.72328e-22)
(-0.0138125 -0.944293 0)
(0.0371702 -0.86191 0)
(0.043037 -0.0361076 0)
(-0.11218 -0.889798 -4.53085e-20)
(0.035527 -0.888012 -4.89281e-20)
(0.0766239 -0.806587 -9.61587e-20)
(1.26341 -0.249965 2.05489e-21)
(-0.0441091 -0.873786 -8.43752e-20)
(0.0264152 0.880485 -7.55329e-21)
(0.475531 0.587347 1.48449e-20)
(-0.0351666 -0.995737 -7.18326e-20)
(0.887298 1.1069 -3.12529e-20)
(-0.116871 0.900405 0)
(0.0543776 0.821846 0)
(0.00842024 -0.87929 1.86484e-19)
(0.435996 -0.523569 9.19441e-20)
(0.753436 -0.487615 0)
(0.350693 -0.317604 0)
(0.0199947 -0.927161 6.23945e-21)
(-0.0673674 -0.88126 1.08566e-19)
(-0.039722 -0.997688 0)
(-0.0618094 -0.86846 -6.87965e-20)
(1.01942 0.244076 0)
(0.300254 -0.432249 -8.37785e-21)
(0.340074 -0.537731 -1.41637e-21)
(1.17823 0.227529 0)
(-0.00222362 0.866552 -4.51223e-22)
(0.133243 0.892113 -2.79713e-20)
(0.230139 0.88274 -2.58521e-21)
(0.0644568 -0.996451 3.30884e-20)
(1.02235 0.885288 0)
(-0.0370285 -0.935549 1.32694e-19)
(0.00145408 0.837486 0)
(1.50163 0.126543 -8.57394e-20)
(-0.0723508 0.931211 0)
(-0.00572666 0.876777 0)
(0.0689315 -0.00908838 4.2207e-21)
(-0.0618429 0.993036 4.02474e-21)
(-0.0098875 0.873817 0)
(0.600903 -0.417393 -3.00482e-20)
(0.933119 -0.530377 3.43591e-20)
(0.0284507 0.909889 1.26942e-21)
(0.016097 -1.07576 8.96323e-20)
(0.0412297 -0.919526 4.06585e-20)
(0.0360482 0.957993 -1.47159e-21)
(1.18446 -0.593613 0)
(-0.00954381 0.879113 0)
(0.0595884 -0.813444 0)
(-0.0508882 -1.02953 1.02826e-20)
(0.667541 -0.331421 6.44769e-20)
(0.713782 -0.373982 -2.81551e-20)
(0.0954951 0.856517 -3.51238e-20)
(0.953501 0.990921 -1.35785e-20)
(0.0626138 0.942701 3.43109e-20)
(0.0145808 0.926003 -2.32722e-20)
(1.1266 0.727968 1.97835e-20)
(0.0758324 -0.984637 1.28105e-19)
(-0.0325584 -1.03483 7.27443e-20)
(0.0413835 -1.0001 5.49422e-20)
(-0.00496928 0.986689 -4.42579e-21)
(0.0459853 -0.930235 0)
(0.98669 -0.532733 1.90141e-20)
(0.572923 -0.803265 -1.43648e-19)
(-0.0946762 -1.03539 5.70124e-20)
(0.0850559 0.458651 7.25904e-21)
(-0.0911177 -0.866655 1.09107e-19)
(0.0139864 -0.857864 0)
(0.0823571 0.86109 0)
(0.545847 0.584412 3.19071e-21)
(-0.112324 -1.02414 5.62894e-20)
(0.0420181 -0.833388 8.83269e-20)
(0.223993 -0.855865 -6.76565e-20)
(-0.0361944 0.990497 0)
(0.0647424 0.455869 0)
(1.48298 0.174755 8.45039e-20)
(-0.0907057 0.919195 -1.01271e-20)
(-0.0868582 -1.00471 0)
(0.0559941 0.892194 0)
(0.0175918 0.864246 0)
(0.567607 -0.545653 0)
(0.481154 0.962144 0)
(-0.0268999 -0.902222 0)
(-0.00092948 -0.952546 -8.84609e-21)
(0.122176 -0.984874 3.3499e-20)
(0.0595398 -0.990517 0)
(-0.0774576 -0.900115 -3.02558e-20)
(-0.0209 0.949784 -2.82303e-21)
(1.21265 0.452175 -3.94774e-20)
(0.056767 0.915738 3.40509e-21)
(0.0614029 -0.884177 0)
(0.00883149 -0.906986 6.7605e-21)
(0.399855 -0.680134 4.15992e-20)
(1.04627 0.0817407 -7.36622e-20)
(0.0389604 -1.09458 -1.21595e-19)
(-0.0270827 0.926548 1.3245e-21)
(1.12875 0.362291 5.3321e-20)
(1.22418 0.0372549 -9.37063e-20)
(0.654344 0.645052 4.57058e-20)
(0.00818955 0.879404 -2.83834e-21)
(0.529412 0.664378 8.97375e-21)
(0.295411 0.637421 3.35093e-20)
(-0.111289 0.931342 1.00238e-20)
(0.0352489 0.871637 9.88021e-21)
(0.0361351 0.804591 0)
(-0.0125424 0.922771 -6.79585e-21)
(-0.08146 0.902254 -1.81648e-21)
(0.118661 0.839558 0)
(0.682136 -0.453721 0)
(0.0422968 0.832177 1.33582e-20)
(0.53319 0.653601 -2.90635e-20)
(1.38596 -0.377751 -8.07343e-20)
(0.0468584 -1.02613 2.09172e-20)
(0.0771329 -1.02599 0)
(-0.0331163 -0.921387 1.40058e-19)
(0.00407907 -1.05962 -1.22202e-22)
(0.309165 0.70517 -3.14978e-20)
(0.702977 -0.309248 8.30731e-21)
(0.0466548 -0.882334 -5.69194e-20)
(-0.028473 0.784933 6.94661e-21)
(0.00519868 -0.864638 9.91076e-20)
(-0.0803212 0.942779 5.98928e-22)
(0.63873 -0.843022 2.59987e-20)
(-0.00543799 0.939377 0)
(0.105014 0.872529 0)
(0.0282744 0.852417 3.41913e-21)
(0.238397 0.764423 -2.24628e-20)
(0.00546232 0.824402 -5.31715e-21)
(0.0430729 0.843178 0)
(0.317666 0.813173 0)
(0.0550099 -0.0175243 0)
(1.33075 0.0316344 9.97424e-20)
(0.158835 0.992505 2.45977e-20)
(1.29218 0.0301058 -3.8363e-20)
(0.0046781 0.798358 0)
(0.427044 0.354049 2.56973e-20)
(0.0446284 0.905728 7.86216e-21)
(0.609505 -0.97812 2.37037e-20)
(1.15998 0.0716658 0)
(0.061991 -0.00529616 0)
(0.242547 -0.59843 -1.49755e-20)
(0.115699 -0.889302 1.41631e-19)
(-0.0146265 -0.905485 0)
(0.0554401 -0.691026 1.29361e-20)
(1.20806 0.0534895 3.92757e-20)
(1.18763 0.128061 1.10577e-19)
(0.0551207 -0.971694 -3.30602e-20)
(0.0488503 -0.980483 1.27133e-19)
(0.0358689 -0.942607 5.07489e-20)
(-0.047537 -0.992865 5.56533e-20)
(-0.0663865 -0.921338 -1.69331e-19)
(0.042092 0.0339422 3.44433e-20)
(0.00972631 0.924099 0)
(0.0752658 0.943775 1.48782e-21)
(-0.048501 -0.881562 -1.18589e-19)
(-0.0642562 -1.10424 -1.45616e-19)
(-0.0554956 0.748318 -1.25989e-20)
(-0.0293453 0.892111 2.00718e-21)
(-0.0436468 0.95511 -1.11052e-21)
(0.0359447 0.289255 -1.5536e-20)
(-0.0402448 0.994865 -8.69089e-21)
(-0.0364066 -0.869045 7.12121e-20)
(0.000277416 0.851294 0)
(0.0424369 0.964987 1.32267e-20)
(0.0189133 0.889031 0)
(0.0138882 -0.905074 -3.89392e-20)
(-0.090912 -0.933103 1.89606e-21)
(0.0708819 -0.905382 -9.278e-20)
(0.327161 -0.972033 0)
(0.123461 0.936526 -2.46663e-20)
(0.021159 -0.963378 4.84139e-20)
(0.035326 0.790803 -1.0623e-22)
(-0.0418773 0.785081 3.18313e-21)
(-0.00590311 -0.865666 0)
(-0.0746192 0.818658 8.58764e-21)
(-0.32304 -0.533107 -1.36333e-19)
(-0.0506372 -0.861192 4.35952e-20)
(0.0797479 -0.842908 5.38598e-20)
(-0.0816475 0.891371 -4.14334e-21)
(-0.0391111 0.936498 6.81474e-21)
(-0.020365 -0.898705 0)
(-0.0437551 -0.918668 -1.72777e-20)
(0.02894 -0.904772 -4.92632e-20)
(0.487034 -0.549564 -1.18368e-19)
(-0.00500889 -1.09623 -1.60567e-19)
(0.206875 -0.182119 5.17868e-20)
(0.301705 -0.653705 -3.24139e-20)
(0.937216 -0.0480449 0)
(0.0137633 0.927613 -1.14346e-21)
(1.44961 -0.0217617 -4.29612e-20)
(-0.0274534 0.896425 1.01243e-21)
(-0.0261007 0.883953 3.26972e-21)
(0.278759 -0.654894 0)
(0.965191 -0.645671 0)
(0.538022 1.19961 3.42116e-20)
(-0.0554395 -0.969383 0)
(0.0244674 -0.847734 -7.63909e-20)
(0.196918 0.641901 0)
(-0.165842 0.986683 0)
(0.730117 -0.282425 0)
(1.16581 0.213652 1.17338e-19)
(0.0466432 0.864634 7.47837e-21)
(0.111104 0.676204 -7.29207e-22)
(-0.0351707 -0.940531 1.96644e-20)
(0.0489145 -1.00047 5.71715e-20)
(-0.0638296 -0.944204 -3.95058e-21)
(0.0610291 -0.00450407 -1.46946e-20)
(0.00176895 0.841053 -3.44266e-21)
(0.0864934 0.692166 0)
(0.00112877 -0.821907 0)
(-0.103879 0.840891 2.89798e-21)
(0.0156541 0.91944 -1.42539e-21)
(-0.00468197 -0.95396 0)
(1.03551 0.858109 -4.38981e-20)
(0.0265737 0.906735 -1.74378e-21)
(-0.054991 -1.01807 6.01712e-20)
(-0.00275508 -0.97188 0)
(-0.0798915 0.935964 0)
(0.038788 -0.966793 1.51547e-19)
(0.319021 -0.92262 -1.19343e-19)
(0.72993 0.691568 3.20106e-20)
(0.55302 0.724955 0)
(0.149324 0.837761 2.7104e-20)
(-0.105503 0.981047 2.22138e-21)
(0.357136 -0.934936 3.80075e-20)
(-0.0282876 0.956216 2.59865e-21)
(-0.030131 0.931001 1.58427e-21)
(0.0744093 0.157516 0)
(1.36188 0.714924 0)
(1.3144 0.648742 4.38517e-21)
(0.467652 0.371749 7.68569e-22)
(-0.0403431 -0.965166 5.70744e-20)
(0.0144602 0.894535 5.31882e-21)
(0.882629 -0.677257 0)
(0.0366053 -0.950092 1.00221e-19)
(-0.100907 -0.924233 2.82843e-20)
(0.0500471 0.123535 6.39973e-21)
(0.673075 1.10415 1.86498e-20)
(-0.0554211 0.918517 0)
(-0.0294051 -0.817523 4.63647e-20)
(0.251265 -0.665688 -1.50762e-21)
(0.0602988 -0.916834 1.02435e-19)
(-0.106264 -0.963392 3.0077e-20)
(0.291143 0.239538 -1.62287e-20)
(1.23984 0.51988 8.27322e-20)
(0.297206 -0.846553 -6.84532e-20)
(0.149741 -1.06215 0)
(0.398926 0.220612 -1.33285e-20)
(1.27904 0.778267 -3.59257e-20)
(1.41641 0.529346 -5.41434e-20)
(-0.00155193 -0.928229 -6.36007e-20)
(-0.00855201 -0.776373 2.09842e-19)
(0.123915 0.256163 1.61387e-20)
(0.0381741 0.88375 0)
(0.168631 0.689494 -4.16082e-21)
(-0.090998 0.892544 4.7011e-21)
(-0.0139837 0.836566 -1.11287e-20)
(0.0660221 0.865013 1.77678e-21)
(0.782778 -0.172205 -1.07008e-19)
(0.212499 -0.708591 8.49774e-20)
(0.0980654 -0.969796 -5.39784e-20)
(0.352168 -0.886003 -1.01295e-19)
(1.27667 0.165443 0)
(0.141169 0.10004 1.63963e-20)
(0.0575574 -0.971639 -8.02832e-20)
(-0.00910447 -0.5577 -8.02423e-21)
(0.641076 -0.881927 4.58331e-20)
(0.177827 0.69872 -7.16542e-21)
(-0.0827953 -1.05055 0)
(1.34869 -0.325253 0)
(1.24894 0.734915 -3.64328e-20)
(1.06712 -0.549278 -7.58045e-20)
(-0.0564225 0.839144 -1.05105e-20)
(-0.0324886 -0.924849 1.58358e-19)
(1.09094 -0.728343 -8.09945e-20)
(0.00278635 0.841864 -9.27953e-22)
(-0.103203 0.848961 -3.68515e-22)
(0.0452493 0.810177 2.07724e-22)
(0.10415 -0.997534 -1.12265e-19)
(0.0112192 0.864318 0)
(0.182843 0.0743785 -6.67205e-21)
(0.0636401 1.01717 -8.00335e-21)
(-0.0302034 -0.957206 -6.38464e-20)
(-0.00299483 -0.980322 0)
(0.932225 0.724526 -1.86638e-21)
(0.145797 0.101558 -1.50816e-20)
(0.0272386 0.0355746 -2.32201e-20)
(-0.0616042 0.904107 -8.49325e-21)
(0.405458 -0.630628 0)
(-0.136676 1.01162 1.80109e-21)
(-0.000977772 -0.877687 -6.10316e-20)
(0.0517063 -0.955311 0)
(0.167982 0.0581145 -2.08103e-20)
(0.0768254 -1.05135 -4.62573e-20)
(-0.115617 -0.932974 0)
(0.0298597 0.934831 1.31103e-21)
(1.23432 0.0919026 -2.35779e-20)
(-0.0909994 -0.962951 -9.34973e-20)
(-0.0146437 -0.94261 -1.36166e-19)
(1.00947 0.137088 3.25124e-20)
(1.08145 0.0908593 4.77964e-20)
(-0.0705119 0.923709 -5.5252e-22)
(-0.231789 -1.02915 0)
(0.0230894 0.888949 3.6022e-22)
(-0.123852 -0.934812 7.23857e-21)
(-0.16055 1.0171 0)
(0.0625994 0.97473 1.10224e-21)
(1.03738 0.0664644 -7.77162e-20)
(0.183069 -0.182344 -3.25164e-20)
(1.13688 0.197644 -2.11065e-20)
(-0.126713 -0.967223 4.98408e-21)
(-0.0369269 0.909817 -4.24852e-21)
(-0.00251169 -0.914677 0)
(0.412496 0.584551 -1.53483e-20)
(-0.0371002 0.942546 -2.36306e-22)
(0.0380504 -0.92384 -4.61211e-20)
(0.138364 0.902877 2.9372e-21)
(-0.00866104 0.913369 0)
(0.0839937 -0.836843 -4.66477e-20)
(0.0645815 -0.887867 0)
(0.41092 0.409618 1.65342e-20)
(0.205938 -0.0390063 0)
(0.372821 0.385177 -1.77512e-20)
(0.104292 0.23954 1.27965e-20)
(-0.0686153 -0.890523 -1.43558e-20)
(-0.0198479 -0.912289 8.33249e-20)
(1.12175 0.0373078 -3.4461e-22)
(-0.1345 0.857263 0)
(0.0210561 0.871144 1.41786e-20)
(0.00777103 -1.05187 3.24769e-20)
(0.0660748 0.854942 6.44464e-21)
(0.497887 0.919266 -2.1152e-20)
(0.0798465 0.939571 0)
(0.0281317 -0.973044 -7.85634e-23)
(0.165921 1.04446 -2.47561e-21)
(-0.148756 0.828686 0)
(0.506504 -0.499999 0)
(0.0387251 0.948149 -8.88247e-21)
(0.102702 -0.92339 -1.10338e-19)
(0.0175262 0.878649 -6.73301e-21)
(0.0544107 0.905206 -9.09889e-21)
(-0.0657255 0.947215 1.60525e-20)
(0.0161895 -0.91622 -2.99415e-20)
(0.800083 -0.334174 3.97298e-20)
(-0.138291 0.893606 2.85278e-21)
(0.731583 0.815629 -1.59611e-20)
(0.0318109 0.0246316 -5.58251e-20)
(0.0298247 0.936847 -1.11524e-23)
(0.08902 0.727828 0)
(0.094567 0.814042 -3.28713e-21)
(-0.0200509 0.901989 -5.1626e-21)
(0.0599398 0.921557 1.07076e-20)
(-0.0833152 -0.924289 3.08494e-20)
(0.701568 0.842361 0)
(0.0784092 0.229425 0)
(0.750715 0.881241 -3.08585e-20)
(0.62563 -0.736921 -3.85433e-20)
(-0.0720811 -0.947946 0)
(0.0627648 0.785869 1.08912e-20)
(0.0564646 -1.00917 0)
(1.17768 -0.394112 -5.36421e-21)
(-0.100833 -1.07604 0)
(0.00332522 -0.91653 4.95072e-20)
(-0.0146042 0.870285 -5.4024e-21)
(0.307598 -0.933332 -3.70037e-20)
(1.00082 0.873662 1.31015e-20)
(-0.033934 0.901518 3.62282e-21)
(0.269619 0.148539 0)
(0.43478 -0.752183 5.69361e-20)
(0.048699 -0.827601 6.64617e-20)
(0.112914 0.797035 -6.86174e-21)
(0.0170717 -0.976516 0)
(0.428995 -0.870155 1.27334e-20)
(0.0388812 0.930136 -1.18251e-20)
(0.0993815 -0.969495 6.99862e-20)
(-0.0615438 -0.884061 0)
(0.0186606 0.893167 0)
(0.199542 -1.15539 -3.4178e-20)
(0.0411365 0.925836 0)
(-0.152576 -0.893662 -1.61261e-20)
(0.179231 -0.978782 9.31842e-20)
(-0.00970875 0.882276 5.29046e-21)
(0.209459 -1.13426 -7.84908e-20)
(-0.0865548 1.11817 -2.63945e-21)
(0.0465142 -0.0237292 0)
(0.0316105 0.922437 0)
(0.474386 -0.223974 -5.38804e-20)
(0.0611647 -0.0216727 0)
(0.0879488 0.80589 9.17605e-21)
(-0.00841014 1.10445 2.13094e-21)
(0.109319 0.140903 0)
(-0.0106767 1.00657 -4.03858e-21)
(1.07131 1.0441 -6.59654e-20)
(0.416867 0.892564 -3.94321e-20)
(1.51218 0.243425 0)
(1.16488 0.917347 0)
(0.0153727 0.795829 -4.41318e-21)
(-0.027525 -0.928606 4.25267e-22)
(-0.0169972 0.741111 -1.94887e-22)
(-0.110539 0.831129 1.19233e-21)
(0.0658175 0.851346 0)
(0.0780429 -0.0189279 -3.31502e-20)
(-0.0231053 0.80929 0)
(-0.00643956 0.90384 0)
(1.23007 0.0628048 8.72341e-20)
(0.0199097 -0.962814 0)
(0.0173109 0.810337 -7.36404e-21)
(0.0610336 0.740573 0)
(-0.0136167 -0.937037 -1.16728e-19)
(0.123197 0.112531 0)
(1.04087 0.538511 2.47141e-20)
(0.256841 0.674933 4.41325e-21)
(1.01461 -0.625219 9.48631e-21)
(1.02491 0.700201 1.2288e-21)
(0.5945 -0.905986 4.98325e-20)
(0.526343 1.01861 0)
(0.40396 -0.639867 0)
(0.516051 -0.4357 -4.35165e-20)
(0.180262 -0.996953 0)
(0.959381 0.80843 5.22825e-20)
(0.790869 -0.108329 6.51532e-20)
(1.01296 0.302044 3.7559e-20)
(0.0387489 0.896207 1.44786e-20)
(0.0191481 -0.215016 3.34454e-20)
(-0.0176714 0.906124 -6.40035e-21)
(0.109712 -0.984792 -8.3263e-20)
(0.311878 -0.706096 4.49904e-20)
(-0.00311882 -0.979218 -1.62178e-19)
(0.0971296 0.713681 -1.51977e-20)
(0.129997 -0.677413 -4.23025e-20)
(0.0210992 -0.939178 0)
(0.205887 0.00793713 -3.46721e-20)
(-0.00474063 -0.928781 1.5612e-19)
(-0.099291 -0.857151 0)
(0.0123643 -0.855143 -4.54108e-20)
(1.01871 0.0521216 3.99358e-20)
(0.0703469 -0.0881813 0)
(0.113968 -0.684809 2.52118e-20)
(-0.0448093 -0.894505 8.33786e-20)
(0.0407512 0.6747 -1.83061e-20)
(-0.101547 0.881887 8.1665e-21)
(0.159761 -0.0234026 -3.67957e-20)
(0.010525 0.862717 0)
(-0.00116934 -0.988591 1.08277e-21)
(-0.0266106 -0.953835 0)
(-0.0202313 0.822489 0)
(0.504513 -0.559591 2.23505e-20)
(0.239515 -0.583089 -8.81548e-20)
(0.91105 0.971085 0)
(1.21683 -0.0258295 5.00984e-20)
(0.0405888 1.14689 -2.15283e-22)
(-0.00676135 0.998878 8.68187e-21)
(0.02696 0.151183 2.67942e-20)
(0.668099 -0.477351 7.78232e-20)
(0.0735651 -0.949729 0)
(0.212122 -0.897877 2.80679e-20)
(0.0154785 0.07566 1.51968e-20)
(0.0374565 0.843278 0)
(0.00873617 -0.923598 6.02836e-20)
(0.153258 -0.999663 -9.50799e-22)
(-0.0582237 -0.992219 3.57203e-20)
(0.103655 -0.855826 3.75703e-20)
(-0.0660287 0.849798 -5.18999e-21)
(-0.0146445 0.876436 -5.17151e-21)
(0.146889 -1.1417 6.73069e-20)
(-0.083975 -1.01297 -4.06094e-20)
(0.0507075 0.00137227 3.18698e-20)
(-0.0266003 0.827916 0)
(0.0263811 0.00586432 -2.62241e-20)
(-0.00142734 -0.882886 -2.93973e-20)
(0.515001 -0.828093 0)
(0.0353172 -1.03518 2.88728e-20)
(0.0888453 0.878136 -4.17904e-21)
(1.46557 -0.0619877 -3.862e-20)
(-0.0934244 0.972654 2.31589e-23)
(0.0458428 0.979293 1.09694e-20)
(0.0760569 0.891382 -1.01528e-20)
(-0.0832933 -0.983083 1.13898e-19)
(0.275977 0.16822 0)
(-0.118288 -0.907616 1.22817e-19)
(0.16286 0.0211367 -1.80496e-20)
(-0.0340225 -0.859843 0)
(0.50552 -0.378315 -4.21051e-20)
(0.522502 -0.271063 5.13553e-20)
(1.0811 -0.00797233 0)
(0.089456 0.980925 -1.08512e-20)
(0.560953 -1.00702 -5.97226e-20)
(0.0246063 -0.912652 1.10302e-19)
(0.088825 -0.97454 0)
(-0.0603895 -0.959774 7.2637e-20)
(1.48424 -0.0946565 0)
(0.266819 -0.192808 -5.07726e-20)
(0.0490257 0.98952 -3.44131e-21)
(-0.000877926 0.868835 0)
(0.00248934 0.998544 0)
(0.135291 0.917604 4.40343e-21)
(-0.0433203 -0.991112 -8.47601e-22)
(0.429329 -0.800306 0)
(-0.0624106 0.859523 0)
(0.00974263 -0.947449 6.2591e-20)
(0.139593 0.0346232 0)
(0.0943686 0.679799 2.27091e-20)
(0.0360105 -0.999983 1.80748e-19)
(0.0176488 -0.972018 -1.66875e-20)
(1.30368 0.310631 0)
(0.122369 0.0143279 0)
(-0.0724961 -1.07969 -8.83664e-20)
(0.0975326 0.935284 4.07593e-21)
(-0.0374492 -0.935107 -1.04437e-19)
(0.818531 0.53119 -2.14956e-20)
(0.323747 -0.72912 0)
(0.0396535 -0.934247 0)
(0.0403072 0.950311 0)
(-0.0157105 0.894335 7.45156e-22)
(0.721245 -0.689471 1.06527e-20)
(-0.0281827 0.91788 0)
(0.0478224 0.378612 0)
(1.10655 0.0244271 4.25846e-20)
(-0.0320853 -0.953001 1.09478e-19)
(-0.153561 -1.00764 -1.08186e-19)
(0.0739878 -0.95243 0)
(0.035632 0.393634 1.49347e-20)
(0.01059 1.02591 0)
(0.993387 0.0370223 -8.99749e-20)
(0.108036 0.00654317 2.7431e-21)
(0.010355 0.00825532 -8.38995e-21)
(-0.00719038 -0.881856 -1.06112e-19)
(0.530681 -0.504641 -8.95335e-20)
(0.0348937 0.296682 1.52659e-20)
(-0.0509572 0.916638 -7.74262e-22)
(0.911975 -0.29581 -8.44692e-20)
(0.555052 0.839487 -9.80573e-21)
(1.00548 -0.0229352 -4.54122e-20)
(0.0448788 0.721863 -1.91185e-21)
(-0.0562523 0.760145 1.13294e-20)
(0.0465824 -1.07321 1.68851e-19)
(-0.146955 0.917775 0)
(0.380151 -0.476356 -1.09385e-19)
(-0.0712448 0.857666 9.57498e-21)
(-0.0103945 0.849739 1.41938e-21)
(0.0777239 -0.98568 -6.26544e-20)
(0.0429119 0.979608 4.79793e-21)
(1.45696 -0.642152 -9.68251e-20)
(0.136216 0.0838249 0)
(0.025567 -0.929809 4.45378e-22)
(-0.0371553 -0.976095 3.51346e-20)
(0.022108 -0.928365 0)
(0.504244 0.750826 -9.27743e-21)
(0.0605318 -0.94786 4.62083e-20)
(0.739435 0.796952 0)
(-0.00294415 -0.909927 0)
(0.0315404 0.744881 0)
(0.0852001 -0.979925 -6.70287e-20)
(0.184742 -0.936675 -2.8978e-20)
(-0.0910444 -0.938841 5.38301e-22)
(-0.0177256 0.972126 0)
(0.0198589 0.00481151 -6.32153e-22)
(0.690235 -0.548188 -9.01395e-20)
(1.02453 0.0668162 -4.35642e-20)
(1.32413 0.0825695 7.91359e-20)
(-0.00846926 -0.914499 -3.61317e-21)
(-0.0495973 1.00027 0)
(-0.062692 -0.948175 0)
(0.101513 -0.973962 4.22852e-20)
(-0.054415 0.863454 0)
(0.335982 -0.529703 -4.26797e-20)
(0.013594 -0.905165 1.35429e-20)
(0.848447 0.564255 1.28856e-20)
(-0.0473128 0.980536 0)
(-0.0468031 -0.971193 -5.35728e-20)
(0.248816 0.855613 -1.22132e-20)
(-0.0784983 -0.934385 -1.40107e-19)
(0.0955981 -1.01539 1.14528e-19)
(0.0764804 0.841319 0)
(0.0524421 0.0042417 -1.68999e-20)
(0.0463549 -0.962946 0)
(0.211219 -0.669918 4.58232e-20)
(0.0634117 -0.89083 0)
(-0.0998788 -0.914136 1.01343e-21)
(0.12695 0.881441 5.47667e-21)
(0.0379275 -0.920374 3.03921e-20)
(1.18089 -0.220502 -7.78608e-20)
(0.113651 -0.856358 6.57809e-20)
(0.0160788 -1.00451 -6.17459e-20)
(-0.0431396 0.825303 -4.6549e-21)
(1.0729 -0.0559921 0)
(0.713889 -0.345304 4.25934e-20)
(-0.0953003 0.995738 -2.30961e-21)
(-0.00767625 -1.02945 -4.90914e-21)
(-0.0891392 0.970929 0)
(-0.117141 -0.915693 1.47364e-19)
(0.0390367 -0.97671 -7.43899e-20)
(0.0159586 0.26759 1.02793e-22)
(1.25002 0.249995 5.46616e-20)
(-0.0831914 -0.979846 7.56209e-21)
(0.0278868 -0.973324 5.8703e-20)
(0.983022 0.107714 7.79753e-20)
(-0.0794734 0.920767 0)
(0.514501 -0.4376 0)
(0.049992 0.667373 -3.13189e-20)
(0.0112025 0.920374 2.90925e-21)
(-0.358357 -0.578301 0)
(1.083 0.696712 -5.23197e-20)
(0.0457154 0.89356 2.71328e-21)
(0.0704643 0.827211 -1.70686e-20)
(0.0358333 0.78019 0)
(-0.021385 1.01619 1.4818e-20)
(-0.0178923 0.915144 -7.2811e-21)
(0.571357 -0.687503 -7.75149e-20)
(-0.0848863 -0.930219 -5.28776e-20)
(1.26942 0.424317 0)
(0.0885824 -0.949492 -4.17101e-20)
(0.118529 -1.1068 0)
(0.00333977 -0.84414 0)
(0.364872 0.583479 0)
(0.0382598 -0.884725 0)
(0.662173 -0.605889 7.54925e-20)
(1.08896 0.169364 4.73408e-20)
(0.360778 0.323644 0)
(0.600681 -0.333833 3.20899e-20)
(-0.0130584 0.849925 2.01136e-20)
(0.351791 -0.621442 2.53526e-20)
(-0.00202057 0.890203 0)
(0.35115 0.518846 -2.53915e-20)
(1.51044 0.252378 5.14691e-20)
(-0.041823 0.849603 -6.67899e-23)
(0.010899 0.997453 4.04886e-21)
(-0.0241043 0.928608 9.1348e-24)
(-0.0541505 0.942025 0)
(-0.0711786 -0.889864 0)
(-0.0166184 0.922731 -1.76863e-20)
(0.527177 -0.449216 -3.32472e-20)
(0.0512087 0.930324 -1.20965e-21)
(0.649568 -0.793124 0)
(0.0155653 -1.03557 -1.1535e-19)
(0.58186 1.00522 -8.49857e-21)
(0.880048 0.846421 -5.13056e-20)
(-0.0726209 -0.928213 -1.75213e-20)
(0.0061609 -0.893864 5.79655e-20)
(1.36384 0.591116 0)
(0.119732 -0.998109 -4.85731e-20)
(0.012567 -0.926505 -1.5736e-20)
(1.01039 1.03664 -2.68873e-20)
(0.246435 0.706548 -2.13591e-20)
(1.17217 0.996871 -3.21125e-20)
(-0.149284 -0.946164 5.48249e-21)
(0.124819 -0.961667 2.7967e-20)
(0.171222 0.598606 -5.00436e-21)
(0.0363734 0.893443 4.58487e-21)
(0.105999 0.983655 7.58602e-21)
(1.03393 0.420924 0)
(0.599588 0.0873363 -2.95797e-20)
(-0.00246015 0.890051 0)
(-0.12037 -1.0032 9.37909e-20)
(0.58731 -1.04267 0)
(0.323556 0.674376 1.34953e-20)
(1.08679 1.07336 -4.81933e-21)
(0.287702 -0.0908461 3.86602e-20)
(0.561153 -0.423977 0)
(1.03485 0.227018 -9.88703e-20)
(-0.0669136 0.852623 -2.315e-22)
(-0.0763097 -0.980679 -2.0849e-20)
(1.05624 0.115578 7.23505e-20)
(0.0615593 -0.128205 -4.22668e-20)
(0.0831656 0.537458 0)
(-0.229548 0.820754 -4.55924e-22)
(0.0587707 -0.985136 0)
(1.27921 0.514142 3.35247e-20)
(0.0240434 -0.922513 1.73179e-21)
(-0.0581874 -0.8875 1.32887e-20)
(0.0319029 -0.954109 -6.07078e-20)
(-0.0267335 0.906274 3.93681e-21)
(0.735912 0.377465 -1.39295e-20)
(1.21125 0.690412 6.70545e-20)
(0.0315669 -0.00108349 0)
(-0.00120285 -0.936954 0)
(0.11228 -1.08187 6.55028e-20)
(1.06065 0.560367 2.83641e-20)
(0.124239 0.988409 2.43519e-21)
(0.0176056 -0.894492 -5.38488e-20)
(-0.0378701 0.935996 0)
(1.02153 0.177586 0)
(0.0135108 -0.949244 3.00395e-20)
(0.0692655 0.918797 0)
(1.12931 0.792969 -1.23519e-21)
(0.0735852 1.02523 1.25185e-20)
(-0.00715748 -0.99948 -2.28297e-20)
(0.0346547 0.812349 0)
(1.4933 0.298386 -8.66398e-20)
(-0.000295622 0.813728 9.9535e-21)
(0.656989 0.401084 7.69011e-21)
(1.02223 0.929129 -6.21788e-21)
(0.137743 1.00182 -1.37998e-20)
(0.139385 1.02486 -1.54149e-20)
(0.025252 0.905607 -3.54906e-21)
(0.0949868 -0.751607 4.74131e-20)
(0.0786826 -0.817044 0)
(0.24644 -0.0733445 3.3955e-20)
(0.0477278 0.789044 0)
(0.0420223 -0.962266 -9.7819e-20)
(-0.0226789 0.803109 1.35805e-20)
(0.363282 -0.465957 3.60052e-20)
(0.173371 -1.01833 1.66735e-19)
(0.348504 -0.406884 3.91755e-20)
(0.153688 -0.956176 -5.79263e-21)
(0.036695 -0.951431 5.17191e-20)
(0.0212439 -0.994427 -4.85911e-22)
(0.0382504 -0.987493 -6.17879e-20)
(0.031281 -0.968735 -1.24247e-19)
(0.00116401 0.881266 8.59857e-21)
(-0.00535184 0.86474 9.1348e-22)
(0.113619 -0.925822 0)
(-0.0878123 0.934937 1.66059e-20)
(0.0119997 -0.935693 7.23918e-20)
(0.177938 -0.146821 -5.1336e-20)
(0.331288 -0.0797785 -3.01713e-20)
(0.55458 -0.457712 4.28699e-20)
(0.0875611 0.571612 2.13048e-20)
(0.253289 0.336469 -8.14432e-21)
(0.609476 -0.369526 -6.02161e-20)
(0.0190985 -0.900604 -7.09433e-20)
(1.13611 0.00398638 1.10902e-19)
(0.0362958 0.911032 1.70583e-21)
(0.00572171 -0.979243 -1.59005e-20)
(0.846358 -0.310592 -5.08669e-20)
(1.23001 0.73519 0)
(0.0552838 0.982266 0)
(0.019642 0.885005 0)
(0.0540538 0.0293369 -2.20047e-20)
(1.15603 0.24161 -4.76345e-20)
(-0.0104933 -0.884659 0)
(-0.0689529 -0.941593 -4.37168e-20)
(-0.0123721 -0.943144 7.18918e-20)
(0.451007 -0.414571 0)
(-0.114874 -0.911051 5.48608e-20)
(0.0294857 -0.875457 1.1647e-19)
(0.00167802 -0.92556 -1.13429e-19)
(0.654343 -0.910122 9.5883e-20)
(-0.153401 0.866731 0)
(0.115475 -1.0821 -4.99429e-21)
(-0.0689499 -0.99341 6.48887e-20)
(0.0854671 0.700934 -3.16053e-20)
(1.03172 0.705911 2.2601e-20)
(0.165937 0.0906643 1.78065e-20)
(-0.0236892 -0.841229 1.03948e-19)
(1.09863 0.076545 5.25581e-20)
(-0.0403756 -0.888829 0)
(0.0206522 -0.932053 0)
(0.602894 -0.0392543 0)
(0.0406221 -0.921124 5.70212e-20)
(0.00766027 0.889241 -3.81193e-21)
(0.0672456 0.852132 2.02518e-20)
(-0.0356826 -0.943358 0)
(-0.00718079 0.976537 -1.50065e-21)
(1.11519 0.500789 6.25907e-20)
(0.0894128 0.930119 -1.42316e-20)
(1.12627 -0.113599 0)
(-0.0382479 -0.831098 7.16789e-20)
(1.14255 0.430815 1.5542e-20)
(0.106076 0.840824 2.34092e-20)
(0.185899 0.666737 1.6918e-20)
(1.13259 -0.242013 0)
(-0.0273381 0.894683 0)
(-0.0501663 -0.881317 -9.02841e-20)
(-0.013551 0.873721 -1.03023e-21)
(0.462855 1.19754 0)
(0.19384 0.257812 9.60557e-21)
(-0.0854427 -0.832836 -1.03241e-19)
(-0.00294031 -0.954593 7.9004e-20)
(0.14452 1.0451 0)
(-0.062474 -0.885754 0)
(1.04253 0.154896 4.07586e-20)