/*--------------------------------*- C++ -*----------------------------------*\
  =========                 |
  \\      /  F ield         | OpenFOAM: The Open Source CFD Toolbox
   \\    /   O peration     | Website:  https://openfoam.org
    \\  /    A nd           | Version:  9
     \\/     M anipulation  |
\*---------------------------------------------------------------------------*/
FoamFile
{
    format      ascii;
    class       volScalarField;
    location    "0.5";
    object      p;
}
// * * * * * * * * * * * * * * * * * * * * * * * * * * * * * * * * * * * * * //

dimensions      [0 2 -2 0 0 0 0];

internalField   nonuniform List<scalar> 
97292
(
4.85431
0.930839
5.75785
5.29741
5.73073
0.193686
4.76591
0.279756
1.8151
4.72239
4.54224
4.50136
4.84902
4.716
5.26767
5.82452
0.181004
1.7487
3.92097
5.77254
1.44215
1.05772
0.447252
0.164827
1.04376
1.26961
0.553467
0.165257
1.43953
0.391622
1.77679
1.55442
0.534014
3.6111
4.50557
2.29132
1.57801
1.60638
1.57955
2.35939
0.168925
0.72424
1.65361
6.08777
1.36578
3.67689
3.73557
1.13838
0.930532
0.173853
5.52486
3.01667
1.7222
5.49675
4.11903
4.29861
1.80742
1.44437
5.23656
4.01215
5.30871
4.37414
0.13155
0.954794
5.50538
3.91914
5.28039
4.93933
0.904166
1.46817
1.0118
5.44633
3.30024
4.7798
1.4309
5.16872
3.60649
0.946464
0.966742
4.52231
0.378654
4.4042
5.0258
0.735448
4.51729
4.43154
1.63837
0.572507
4.49714
1.91111
1.42868
5.35151
1.58696
1.70977
0.297279
1.29941
6.14496
4.42049
1.42297
4.36406
3.02906
1.64765
4.39761
1.64503
0.665777
1.77644
1.22186
3.36235
5.04137
1.52997
4.44
4.62685
0.939218
3.02506
5.90143
5.04333
0.319332
5.31174
0.768622
2.96699
0.30979
6.07679
0.852261
1.59163
5.4336
1.70777
1.58302
5.26181
2.93056
1.6972
2.13764
0.953977
1.07806
0.255836
4.34669
6.22166
1.00256
3.99206
1.74828
1.56181
5.51897
0.763368
4.84183
2.52088
5.0542
2.60344
4.4862
1.12517
4.16116
0.285262
4.61751
5.28997
5.94849
4.45735
5.2492
1.75858
4.39817
0.433422
0.433927
1.78117
4.90805
0.533694
0.988235
1.44013
1.81796
5.80619
6.06843
1.43529
5.39819
1.77643
4.31346
2.33537
4.79751
2.95147
1.10504
4.27797
3.36137
4.07671
0.877634
2.34188
5.15433
3.30249
1.42185
0.494409
5.86115
5.31485
1.42119
4.91286
5.86405
4.61977
3.0673
5.38391
0.70231
1.76574
5.9393
1.5503
0.87541
0.359399
6.04781
4.49267
4.10615
1.11948
5.75702
5.55128
5.70501
5.56802
2.95704
6.29281
4.5366
3.07547
1.22393
1.28509
0.361195
5.21699
1.79859
5.98548
0.999104
2.74145
0.617954
0.640484
1.46958
0.0560475
0.774296
4.36369
3.78702
0.77059
5.92112
4.70873
0.15079
3.69565
0.603285
4.99059
5.87589
4.23616
4.35734
1.25266
1.62995
1.36277
1.37735
1.83123
4.96461
5.45525
5.77026
0.103817
5.59669
3.7456
4.22125
4.95087
1.74698
4.71597
5.49781
0.379109
1.72805
5.25396
4.83556
4.61699
0.251883
1.73253
2.86368
0.897627
5.41349
0.540543
0.615888
4.35452
1.53719
5.51062
5.43507
4.76253
5.61512
5.81346
0.778482
1.81885
0.791026
4.77023
5.65935
4.39054
3.38301
4.83437
0.042208
2.9964
3.20916
1.62576
0.874139
1.70961
1.69617
0.584116
0.619518
0.648704
0.888916
0.0195788
0.040521
4.17604
1.35612
1.73375
3.27526
5.19693
5.81851
5.20884
5.7107
1.69613
4.18577
5.40571
1.35569
4.74069
0.230762
4.21653
0.484558
1.38702
1.01927
1.61682
0.100195
1.33586
1.5983
1.46676
3.24613
1.28193
3.03158
1.00713
1.76797
0.884462
4.09866
3.31271
1.46442
4.57866
6.1592
5.36678
4.70778
3.18851
3.13666
5.51291
5.18549
4.81764
4.75873
5.97704
1.5524
0.492389
0.812021
4.77309
5.4609
1.3066
0.0781419
0.229531
1.73106
0.443977
5.34773
0.508853
0.410742
0.552082
5.46302
5.30104
4.73994
6.30075
1.32006
5.49926
0.0310135
1.21788
4.83207
1.1972
6.27536
5.95987
5.9318
1.11704
1.10339
5.72471
5.34432
5.22596
4.48692
5.26975
1.27941
4.55787
3.72157
0.478113
3.0832
0.502105
1.3561
4.58092
3.91246
1.43226
5.2518
4.69625
1.60605
0.210529
4.29999
2.93196
1.12892
1.56226
4.85751
5.80692
5.2626
1.48714
0.84509
1.55246
4.72875
0.374161
0.268843
5.37604
1.60524
0.250755
5.02172
5.00955
0.287913
5.23455
4.4423
1.67061
1.62649
1.23455
0.0450992
4.42323
0.256274
0.609665
1.62316
2.19285
2.14579
1.77587
5.8491
0.898972
3.86609
5.7813
5.80016
1.63497
1.56344
0.319277
4.73057
4.61895
5.38453
5.13576
1.71029
2.46872
4.55015
4.72535
1.73404
2.12159
2.46306
6.02426
5.98725
1.71848
0.57169
1.61584
0.964244
0.921764
0.330504
3.85326
4.63818
5.6202
4.39431
3.15928
1.61925
5.33191
6.12275
4.1471
1.53261
5.66274
3.35083
2.30895
3.69605
0.607894
5.31922
3.73937
0.337843
0.242585
0.186537
4.72842
1.05944
1.58871
1.0419
5.33924
5.14089
2.67699
1.60479
1.56153
1.01121
4.42828
0.24628
5.34405
5.65529
1.57434
5.36864
5.3801
0.55671
3.35713
5.21729
5.62368
3.58121
3.10204
0.203062
6.17864
0.604012
5.37376
0.174263
0.942227
3.47683
1.23533
3.16326
5.93853
0.532288
5.16673
1.726
0.542625
4.72437
0.260678
1.05827
5.0572
4.74444
1.77254
1.48519
1.77332
1.70663
5.17531
4.97593
3.42437
0.91454
1.26906
6.00682
1.08606
1.60206
0.681661
5.82223
-0.00524161
1.31516
4.42687
1.08294
5.64802
0.723266
0.56177
0.884434
5.9589
4.16036
0.124221
1.74189
1.55171
0.65371
0.318247
0.629592
0.522979
0.494989
5.9287
1.6002
1.68731
1.6142
4.25113
5.29308
0.503196
4.81125
3.51544
4.81565
5.38373
0.717577
4.14457
1.82704
1.12244
1.64223
4.46189
5.32458
1.02673
5.66096
4.24801
1.22642
5.87824
5.5762
1.49151
4.4919
1.07267
5.17336
4.51661
0.898799
4.48932
0.288324
1.44497
0.831044
1.35209
1.44601
1.48691
0.200177
1.61816
0.887052
1.67257
1.62952
2.65004
1.87178
1.04235
5.78848
0.463262
1.33666
1.38135
1.45574
0.396138
0.41353
3.39704
5.63172
1.18642
0.177147
5.64401
1.62967
2.64452
1.58114
3.71328
2.71748
4.09133
1.59055
4.43452
4.42339
6.05879
2.21468
3.97322
3.03046
0.718212
1.15397
0.491444
5.88954
4.63481
5.9989
1.58548
4.60687
4.69937
1.50394
4.92054
5.94927
4.74366
3.42498
1.32795
4.7382
5.22043
1.65067
1.04847
1.47463
1.0691
5.31353
4.75484
1.31914
4.29277
4.6551
1.62215
3.44614
0.229106
0.564647
1.65301
4.1918
5.92455
4.67364
1.5905
1.08997
5.00053
4.56627
5.23669
4.88877
1.09693
0.595297
4.14797
5.86754
1.52096
0.120385
1.5462
5.05103
4.33949
4.67967
0.319225
2.95193
0.329529
0.839248
0.895983
5.3797
1.66622
5.76126
1.48791
5.96146
4.44629
1.29171
3.54655
1.29056
4.10727
4.95177
5.27619
5.27883
3.02223
1.1646
0.779309
0.360015
0.781986
0.318368
5.07846
4.33624
0.0679167
4.85311
1.55406
1.62624
5.97955
5.92629
2.85965
1.52316
5.19894
0.637523
5.20487
1.87476
4.53281
4.99598
0.878473
0.831887
4.08939
0.830141
1.73388
3.56681
5.58634
5.5456
5.5068
1.7161
1.27342
3.66477
1.51361
1.55135
5.52729
4.36991
1.72951
-0.00410643
3.92241
1.69631
3.46636
0.587827
1.63072
5.36845
0.353167
4.52947
0.747081
0.468656
5.19255
0.835386
3.26636
1.56651
5.52601
5.48283
5.6531
1.64536
5.33658
1.64882
5.34485
1.51853
5.44524
4.73621
5.43549
0.801641
1.54935
4.19053
3.4745
2.85967
5.77608
0.547218
5.36362
6.01226
0.0931281
4.59852
4.91104
1.82172
0.802369
5.31123
1.45483
4.97349
5.39747
0.408266
1.5015
5.86666
4.58057
5.86651
5.56498
0.8366
5.92744
3.61991
5.7809
5.63417
0.956564
3.59925
4.1783
0.287762
6.00331
0.547859
4.9919
6.06667
1.71074
2.95556
5.93199
4.78669
3.41203
0.776539
4.36782
1.62786
0.529539
6.07399
2.53201
0.976342
1.1639
0.425949
0.484486
0.500444
4.34362
5.17897
2.55185
5.03725
4.58178
5.18765
1.73718
5.1309
4.25643
3.26758
1.74467
4.33173
0.751601
4.54334
0.925623
1.73664
2.6112
0.383407
0.785194
0.00498862
0.852222
5.25955
1.29999
4.37108
1.22945
4.31872
5.78592
1.36928
1.64104
4.77068
4.91449
2.25601
4.78609
5.85923
2.11276
1.65852
1.67689
5.08999
4.70781
1.71321
1.19487
1.20296
2.9379
1.73043
0.763945
5.19608
3.91622
1.65752
1.52342
1.36778
4.37086
3.08912
0.0894803
4.78513
3.33425
1.31912
1.73031
0.0165674
5.82187
2.53667
5.78997
5.82209
5.82117
0.935996
1.80961
2.58931
1.43764
4.72642
5.33562
2.67817
0.896231
4.99721
0.404502
3.3968
5.65956
1.0033
2.13584
1.28641
5.19435
1.16516
2.67359
1.14548
1.83659
2.08734
1.29081
1.02787
0.555454
4.7187
4.71734
1.44022
1.16992
5.52835
1.20203
4.54518
5.94347
4.55984
5.96161
5.22537
5.27556
5.52737
5.92445
0.939388
1.04378
5.94459
0.631691
5.71218
1.36287
1.45253
4.43096
1.69982
1.73344
4.34731
5.53098
3.37071
0.825046
4.78626
4.25392
2.44222
0.798452
0.947582
1.54843
2.92704
5.12497
4.83698
5.91229
4.31052
5.09274
4.89348
5.28742
4.16221
0.309407
5.43957
5.38093
1.59509
2.37598
1.60747
4.92478
3.39578
5.53217
4.89321
1.70243
4.89908
0.821581
1.32517
5.32437
0.683756
2.64406
0.672084
3.22547
4.78828
2.70915
1.35945
1.6641
3.42106
0.627702
5.63049
0.22472
1.36633
1.70687
4.75284
6.04704
1.33033
5.16699
3.34148
1.28524
1.36788
6.10911
2.33343
5.20703
1.73211
2.90515
3.0928
3.99881
5.86816
4.0548
0.754147
2.64977
6.00745
1.69898
0.990138
4.70815
1.72501
5.79565
1.77843
1.88599
1.01312
4.67092
3.23777
5.32811
1.63097
1.56237
4.01002
5.55206
4.90987
4.75625
4.00677
5.34356
5.41949
2.46067
1.88331
1.50088
4.81405
3.24503
5.66946
1.70117
0.703522
4.65489
4.50333
3.2117
4.57085
4.51018
0.0324028
4.76661
5.80506
4.53156
4.50919
4.876
4.5491
4.95943
4.64757
1.47681
5.35223
4.8564
1.48801
1.27709
2.47903
0.354241
3.98862
0.0866866
4.21748
0.408867
1.79038
0.475138
1.75223
5.18455
0.478621
5.507
0.828649
4.52846
0.545197
0.585249
5.17716
3.73372
2.83041
5.8975
1.36314
1.15003
5.05602
-0.118546
4.75396
4.5463
1.23703
3.9976
1.48312
3.09906
3.31682
5.13279
5.64343
5.78427
3.56909
0.663396
3.52203
4.66854
1.68068
0.152623
4.53959
0.333738
3.41801
4.42539
3.12546
4.10348
4.36017
4.78395
5.91777
5.7811
0.604976
5.80672
1.47406
4.07427
6.03022
5.99856
3.99466
3.53479
5.80304
0.793054
2.42418
0.267077
4.10522
3.31171
1.69584
0.826156
0.273739
4.55519
1.01823
3.04869
0.319093
4.15737
5.56831
5.79541
0.264001
0.759816
5.55058
1.73772
5.83957
4.90877
5.13415
1.56588
-1.30424
4.82935
2.49215
3.44631
4.90934
0.103666
1.15249
4.80222
1.68711
1.22863
5.92439
3.42846
5.13134
4.76952
5.93949
2.66007
1.31323
1.65289
3.19732
1.68012
4.57856
0.985551
1.5045
-0.00395363
4.02489
5.31201
5.49732
1.97826
3.38015
4.65748
4.69883
5.79679
4.51835
0.492554
0.491157
4.01907
0.940132
5.26702
1.40063
5.628
4.32105
0.0830686
3.82033
5.87726
5.22746
3.8719
0.726519
0.95552
4.85577
0.524661
6.01625
0.840902
2.89797
5.57999
3.56078
1.39893
4.9664
5.30048
1.20474
5.60669
2.96774
1.53357
5.94282
0.718203
5.07877
5.5744
0.400794
4.17938
4.84226
1.70732
2.32234
1.51722
0.0376988
2.81156
1.52348
2.35149
4.08882
2.3933
2.25162
1.30959
5.2177
5.57086
0.0684528
5.45452
0.974417
0.964575
5.31091
0.672076
1.09185
1.58177
1.72623
3.23881
5.14662
5.37258
1.55642
4.92241
4.67348
1.11866
5.81887
1.23329
1.69007
2.55356
5.00411
0.569306
5.85021
0.780772
3.93011
5.26481
1.03181
0.762831
1.18154
0.11151
5.32311
4.72544
1.58982
1.49524
5.47929
0.418004
0.254353
5.46674
1.03186
5.07999
5.82551
3.10984
5.53992
5.84238
1.26598
5.78981
3.26232
5.58467
0.362505
5.6182
5.56867
2.40747
1.6907
5.59328
1.49264
1.42939
4.41829
5.15589
4.46322
5.36134
5.22723
2.53549
0.604076
4.59737
1.68109
5.40111
0.764115
3.30643
4.63042
5.526
0.900313
1.27252
1.29839
3.14194
4.92299
1.04145
5.45197
5.56877
3.94382
3.0789
3.88674
5.08293
0.474673
0.735942
5.6414
4.63116
5.64378
1.85312
4.37101
6.01122
5.26575
1.80341
5.25498
1.0458
0.679404
0.927699
5.32312
0.527194
6.01965
0.490425
0.574024
4.69623
5.01164
6.05404
5.01233
1.56389
1.95596
1.41149
5.75839
6.03385
5.70431
4.81152
1.2863
1.25646
5.99394
3.30144
1.48498
5.78581
4.77727
5.96757
5.26641
5.14147
3.17317
4.69286
5.15864
0.843613
5.5113
5.50436
4.05652
0.899213
4.40971
1.80538
1.81196
3.84403
4.62504
0.840668
1.6961
4.70796
4.96591
0.786754
0.792904
5.793
4.68419
2.51009
5.00404
5.73633
0.770785
1.42625
4.8335
1.48135
1.05164
3.03696
0.699386
0.709228
2.86893
2.47942
2.87187
1.09212
0.787084
1.09615
1.70337
1.17604
1.18099
1.49864
0.999161
0.245377
4.75234
5.2695
1.70222
2.23214
3.23122
4.54318
0.738634
0.929636
0.960314
4.96411
5.05167
5.06047
5.97523
1.59827
3.10742
0.639699
3.94933
1.53993
5.42486
2.69692
5.22921
1.70983
1.27213
1.51768
5.55395
1.5972
5.14772
4.84577
5.54265
5.42558
3.96135
3.98746
4.53954
1.20533
4.71263
3.24083
1.67477
4.42158
1.39265
1.50608
0.179253
1.32504
4.7651
4.1753
3.3968
0.283319
4.00195
5.64185
1.24834
1.68698
3.42803
0.807764
4.86553
5.18406
5.49471
3.80425
0.93623
5.724
1.19536
1.37805
5.99468
4.14393
2.98829
5.91242
0.459701
0.888889
4.0767
1.71734
0.667584
0.378846
1.58504
2.82411
1.40525
1.24422
1.06705
1.33727
1.20779
0.842992
0.545987
0.29819
0.890433
1.6589
0.814489
2.19879
0.367494
1.72357
0.681913
4.57222
5.25238
0.251104
0.3942
3.39078
5.28159
5.41594
4.92478
4.9021
0.527929
3.80421
4.69494
4.71387
4.66636
1.3782
1.62814
3.04081
1.69523
1.37034
4.90855
1.68681
0.788654
4.42561
0.519394
4.37673
4.20644
4.983
0.809279
0.8113
3.13439
1.72135
0.855125
1.49547
0.0238746
5.30657
1.4987
3.09717
4.57302
1.64208
4.47173
3.8431
4.65111
2.23784
5.15495
1.51426
2.93196
4.35891
4.66512
4.49258
4.35532
5.47279
5.55791
5.99762
4.97793
0.965937
5.13321
6.00995
5.33775
1.74261
5.34586
4.20833
1.55977
4.89423
1.70143
5.71704
3.39857
1.31498
4.04613
0.683438
5.20285
4.45033
4.64645
5.64165
3.63856
1.73881
3.63104
4.05607
0.244406
4.63584
4.29722
4.74567
5.89296
0.892391
6.00862
4.51316
0.857534
4.09756
0.0896567
0.872265
5.78502
1.15659
1.31527
1.03634
1.0077
1.33174
3.1616
4.3023
0.0849052
3.69588
4.23463
4.69981
0.58594
0.944793
6.12131
2.56107
5.97332
5.90944
2.54547
3.06977
6.00719
4.0696
1.19095
5.32107
5.44303
1.35641
5.25714
1.52765
0.22573
0.985854
2.25384
0.851406
1.08495
0.694514
0.886944
1.5686
5.98302
0.160377
5.41305
1.18474
1.39942
0.302612
0.950572
-0.0374339
5.10555
5.61132
2.68892
0.84767
1.29493
4.27016
5.2989
4.52426
4.95419
0.537703
5.73954
5.67081
4.2941
1.3308
1.6594
4.75637
4.20216
4.28553
5.4022
3.25175
1.21877
1.53741
3.18805
1.46997
0.589529
0.244442
1.58251
4.84493
1.15643
4.84337
0.55338
3.63483
0.54128
4.85457
1.0042
1.49906
1.31141
3.11238
3.14569
5.34036
3.44769
0.458627
5.26831
4.67731
0.393285
1.76824
5.60201
4.36837
0.867094
3.98198
1.76144
2.47461
5.32205
4.34275
3.17917
5.28699
1.86002
0.803778
0.157552
6.00843
1.35766
1.26066
1.79644
2.98125
4.63641
0.666109
5.28955
0.991202
1.02041
5.67769
0.726545
0.861363
4.94759
0.544561
5.08451
3.99884
5.77507
2.95594
4.68932
4.20356
4.64789
4.09041
3.1834
1.32814
3.14212
3.98346
5.4648
4.05079
3.26091
6.02806
4.72447
0.307859
1.73587
4.94044
-0.0119052
3.66739
1.50538
5.13639
3.97124
4.86612
4.55286
1.02444
4.31515
3.71023
4.74537
5.87472
5.19203
0.736418
4.74186
4.80111
0.489665
0.305391
4.72098
4.68391
1.69323
5.72949
5.28038
4.4088
0.64859
1.67739
5.28807
4.79741
0.85174
5.07877
4.20689
0.412131
0.870414
5.0321
1.73661
4.68915
1.43286
1.74648
3.51038
5.46315
2.87371
1.34857
1.29171
5.83692
0.448478
1.30027
5.44144
1.37516
2.39635
4.6904
3.02468
4.69512
4.94913
1.68589
0.678225
0.187566
0.994984
2.78944
2.3385
5.67871
0.621913
0.653079
0.412025
1.51361
1.58153
1.71003
0.0400283
1.68806
1.76239
1.11622
1.66392
1.22818
0.807726
0.808416
1.51608
4.7509
1.32438
4.64165
6.07405
1.53719
2.89351
1.61021
4.03683
4.31122
6.04067
0.864764
1.37388
4.18499
0.749544
5.48131
5.41141
3.55863
5.31929
4.16538
4.64727
2.29364
4.33086
2.74572
0.776142
5.29777
1.13824
1.6157
4.90264
4.7298
2.35746
5.86027
4.22495
5.83003
1.54249
4.69557
0.0735167
1.74393
5.82735
5.8803
1.3737
1.67764
3.3434
4.85256
1.36784
4.18393
1.75717
3.3924
1.72285
3.87866
2.65036
0.809005
0.892523
4.7837
1.6978
3.92692
5.05992
2.94608
0.482908
1.50369
2.24683
0.460122
4.65594
0.91761
0.634457
4.46819
4.37616
1.70441
5.22238
0.80369
2.58055
4.37436
2.53664
3.12588
1.83709
4.7032
1.74659
0.759092
3.50162
0.509656
1.56594
1.2063
0.810221
4.58764
0.657882
0.799
1.53828
5.41046
2.26349
1.20065
2.82472
3.14665
0.713357
1.41071
1.18255
5.47512
4.87477
2.27352
0.840503
1.72571
0.595339
5.88087
6.05344
1.11869
1.72879
0.328263
0.795681
4.55084
5.3987
4.84941
1.1577
4.65893
5.28512
0.840274
5.27018
1.58422
2.30511
5.55711
2.27353
1.01558
1.01598
4.80897
0.836237
2.77759
1.33543
2.39183
4.7005
4.25655
4.9448
5.75371
4.35637
3.7315
1.24819
5.20131
0.0326434
1.73915
3.11383
6.03065
4.48888
6.00287
5.40855
4.18794
4.09151
3.31797
1.84632
0.855931
1.14872
1.52436
5.04465
4.58896
0.642937
5.99787
1.47463
0.8411
1.54057
3.77052
3.33834
6.11721
5.56383
0.0912674
0.929456
5.38841
0.503286
2.69095
0.553619
0.659089
4.19406
0.840238
5.19238
0.703338
3.46406
0.691455
4.5249
1.2257
0.778873
4.26967
1.43461
2.2693
5.92634
4.881
4.91454
4.66673
1.75494
5.68108
5.95129
0.589861
2.77424
0.718199
4.25752
2.31616
4.70801
2.37596
0.443183
0.756225
0.502801
1.32702
5.28296
2.59684
5.69475
1.54789
1.54413
1.12216
4.25253
4.72378
4.69017
0.919934
0.766804
1.59193
1.27589
0.978255
1.63861
5.44452
5.44423
5.10565
0.636929
3.33952
1.55875
2.9623
1.17004
0.911253
4.68585
5.34268
2.92137
1.74508
1.5622
1.69915
5.40567
0.362078
0.645295
3.25702
5.5504
1.78488
2.71779
5.95838
1.21923
1.76838
5.15786
0.950204
2.55292
0.939834
4.50321
2.8538
0.765544
1.31844
4.72857
5.94398
1.65938
5.39454
4.9724
0.614301
1.17219
1.62083
0.502532
0.484508
4.94538
5.94843
2.91926
0.17729
1.15819
5.74692
5.40063
0.277561
5.32185
1.52663
3.30321
5.9252
5.42662
0.237583
3.42811
4.17722
1.48181
0.705937
4.33973
4.92877
1.00659
1.68163
0.441836
5.19913
0.485497
1.53647
1.3911
0.754295
0.000663698
1.65944
5.72478
4.64439
0.956659
6.07331
3.67049
4.70263
0.918382
3.16668
4.48788
1.2426
4.37671
4.74022
1.23102
2.50161
4.68517
1.80946
5.66636
3.16869
0.00460776
1.63859
4.11233
5.91353
1.41407
5.41337
3.10154
3.21471
4.55497
5.42388
5.88896
2.4429
2.51738
1.73855
4.53462
1.02428
1.21972
1.20579
4.60209
1.21772
0.767769
5.18124
1.30003
5.55473
6.07668
3.44141
1.42092
4.96693
4.09939
4.76884
2.86045
1.45733
0.789817
1.44069
4.76352
4.8215
4.8782
5.67743
5.20058
3.06839
5.07124
0.482372
5.54772
1.23511
4.52888
5.51849
4.53882
5.68067
5.52528
5.47723
6.21034
0.708022
2.76628
2.52484
0.417536
5.90388
5.24107
4.0411
0.588886
3.03499
2.54744
4.98176
4.87458
1.40515
3.64626
5.00683
5.1934
5.70779
0.872906
5.14771
4.47706
0.878472
4.60103
5.78226
5.84494
4.93854
4.68427
4.96767
4.71075
5.06625
4.00145
0.143332
0.552735
5.65085
1.74629
0.107838
5.53877
1.21196
0.0434769
0.860407
4.44126
4.60867
1.50184
1.04677
0.247338
4.08407
4.0301
1.02603
5.97984
1.00032
4.7056
4.56624
2.59933
0.460712
4.04887
5.65284
5.98671
4.65926
1.6935
1.55231
2.63294
0.634083
1.21734
6.00104
1.33663
5.0788
4.01811
5.09131
1.18067
4.64216
5.9653
5.31192
1.03624
4.30358
4.66736
5.94382
1.19759
0.331773
1.74899
4.6731
0.678188
5.31102
3.33363
1.6669
2.90785
0.515964
4.71408
2.71519
0.916364
4.69342
0.793341
4.70336
3.98042
4.07765
5.28159
4.52774
0.256986
5.80733
4.69692
1.19361
5.31736
5.26371
4.72452
6.01831
4.22496
0.913995
4.51705
1.28239
3.17629
1.08496
1.07578
1.78716
0.484491
5.34978
0.560593
0.562997
0.353785
2.8044
0.912957
3.98279
4.75418
5.64958
1.89997
5.94156
2.88243
1.54416
1.36099
5.7886
0.755921
4.42479
4.76521
2.54097
0.753673
1.7355
0.946635
5.98893
4.68493
1.24802
0.924475
0.489796
0.503438
4.59828
1.71006
1.23405
1.54329
5.13641
2.80336
1.6648
1.28521
5.21182
5.51319
1.5979
4.33009
0.993967
0.482975
0.499862
1.30897
1.85096
4.37796
1.36539
1.64919
0.345499
1.63184
2.49106
4.29089
4.95228
2.39314
4.68543
5.2415
4.68175
4.36919
0.451221
1.08723
4.13431
4.38172
3.84748
1.04156
5.22726
2.03199
5.15406
0.0527172
4.80429
4.81393
0.680144
1.56804
1.32222
4.65897
-0.00841064
5.22395
5.68815
5.95633
2.03851
5.04453
3.02818
2.99481
1.07146
1.42592
0.87942
0.838541
5.06267
4.002
0.751075
0.690161
0.676159
0.834327
5.52366
5.21089
5.45105
1.67982
4.65004
1.6472
4.97281
1.39001
1.25127
1.29665
5.38414
2.5863
1.67518
1.25564
0.996279
5.39549
5.12618
3.72387
1.49885
5.65453
6.00511
4.3851
4.87642
0.371884
2.79968
5.92217
2.80382
4.67695
4.9131
4.4858
3.92242
1.01688
0.840491
1.54842
0.84169
0.0484156
0.664251
1.53376
6.03784
4.68458
0.961353
1.38537
4.67685
0.915077
1.67226
1.19474
4.45865
1.55752
2.93588
3.05779
1.17394
4.78384
4.75308
5.61191
1.05557
4.29124
4.98542
0.164337
1.70989
0.718385
4.2739
4.85783
0.71825
4.91184
1.51845
4.50719
4.27057
1.03132
3.46949
1.06857
0.751748
1.5454
5.88283
0.816871
0.282262
5.47627
0.923481
0.884785
5.69335
5.21823
1.06581
5.92172
5.4256
5.07719
1.73993
4.87629
5.47586
3.85081
1.07734
5.04225
0.920605
0.673931
1.30823
1.26546
0.683606
0.86391
1.55311
4.54994
1.27056
2.66385
1.51199
4.86808
4.85684
0.569913
1.10807
0.953472
5.64348
5.12961
4.73259
4.32316
2.86974
4.27191
4.99936
0.994095
5.28715
4.56861
1.6117
4.42027
4.49999
4.48463
4.54871
4.69888
4.68781
5.01389
5.51847
4.67988
3.05616
5.0447
3.34425
3.16024
5.63641
2.03948
5.55225
5.72532
2.09475
5.7983
4.51042
0.756334
1.22685
0.475074
3.66139
4.86024
1.62269
4.53607
1.01944
1.02814
3.87016
4.68441
4.74958
4.68686
1.40606
4.73933
4.90728
1.18378
0.0700917
0.2005
1.8394
4.71338
1.14765
0.300189
4.67868
0.843137
2.05537
0.823801
1.28182
4.72663
1.65408
4.71759
5.09073
4.78365
1.42149
3.53613
4.82515
5.11951
0.923026
5.66289
1.05597
1.08239
1.28708
5.14441
1.61635
4.80698
3.71862
4.20088
0.352264
1.73005
5.27092
0.140346
4.15314
0.660766
0.517743
4.58779
2.64037
5.36224
5.35186
3.42309
1.24257
1.42764
0.937347
2.95169
2.87571
1.20044
5.88675
5.415
1.51666
4.79716
1.5518
5.52381
5.92179
1.41623
3.56902
3.53623
0.335314
3.38717
4.66189
1.10012
2.76798
5.05889
1.74979
4.67308
4.65903
1.76134
1.53222
0.636809
4.51072
2.72246
2.89506
4.49626
0.912172
4.19274
6.083
4.78122
0.729509
1.51629
0.771095
0.372162
5.4977
0.66201
4.8282
1.74943
0.318823
0.213686
0.308232
5.5187
1.18926
3.40577
5.60528
3.97552
0.314086
5.57949
1.52534
5.74483
1.68947
4.44419
0.997602
3.88305
2.35194
5.70981
1.30027
1.74066
3.72447
4.18877
0.397934
0.734991
0.398916
4.70295
5.29431
1.06251
4.87799
0.0778808
1.67012
3.7301
0.739903
5.89045
1.47031
4.84897
4.68134
4.70258
1.37824
2.13434
3.59756
4.51757
1.24697
0.17826
3.51702
6.02327
3.46376
4.43194
4.75826
1.40789
0.630188
1.71341
1.09702
2.88336
5.40973
4.58336
4.8827
4.81189
4.89081
3.82849
1.09723
2.46947
4.22879
4.36038
5.52939
1.47448
5.34189
1.4492
3.90093
3.15632
1.97361
1.64748
3.46021
5.74454
4.3344
4.72941
1.47932
1.98454
3.07481
0.489243
1.58251
3.90893
4.06076
2.0112
3.64966
0.756346
2.75938
4.37599
3.11188
4.52123
4.50022
4.38026
1.26049
2.83563
4.53311
2.84573
5.44513
5.75878
1.41492
1.69262
4.75659
4.10856
0.90251
0.937766
0.68896
1.20285
1.74364
0.699531
4.38967
0.890868
0.913608
4.60069
3.02925
1.69609
0.990725
0.987182
4.96477
5.47793
2.65502
1.68152
1.74337
1.23061
0.334743
4.92622
3.16221
1.18937
1.20559
3.24191
1.37271
4.0949
5.20378
1.52592
0.905865
5.20944
1.71342
1.25273
1.16763
1.17028
1.60875
2.68144
5.8075
0.453091
4.17567
1.46747
4.13694
2.11705
1.13715
1.37702
5.85112
1.47997
1.63153
1.49619
0.0396281
4.49236
1.31546
4.50364
1.00782
1.77933
0.906731
1.44363
1.75751
5.54462
0.657984
1.67842
0.668774
0.0535077
3.41003
1.01665
4.81985
0.31164
1.20042
1.20412
1.4417
0.0592589
5.2434
0.261484
1.42865
1.37583
5.88235
4.60793
5.72641
4.71473
5.02022
4.01167
0.249923
4.0512
4.79709
4.65897
5.8172
4.80601
0.997497
1.5602
3.51086
3.88146
4.23009
5.18594
0.739797
5.866
1.25079
1.65403
1.56282
4.24514
2.76292
1.01736
1.78805
4.84943
3.84945
5.74282
0.172146
5.38972
5.15259
1.53312
6.05456
1.14648
0.77643
5.19827
5.47735
1.51019
0.751271
4.48237
0.541429
0.308732
1.21888
1.57283
1.47898
0.675948
1.7936
5.03437
4.67922
0.0375005
5.04176
1.28892
3.3737
3.90263
0.784177
0.769435
4.08688
4.68587
1.39918
0.535881
5.16499
5.00773
5.81541
0.746055
0.467286
0.959196
0.288792
1.71401
0.747529
4.90404
1.17762
5.83344
4.79726
4.04263
5.21761
0.26438
1.76652
3.79862
0.363143
-0.000216594
1.72163
1.56682
1.53629
2.86346
4.6847
4.72407
4.36684
1.72107
0.946351
4.50901
1.35352
1.04958
3.64662
1.04525
4.70538
3.90173
1.40453
0.667758
0.636779
2.84798
3.56802
0.770828
4.83
5.25822
4.68758
4.44025
4.70732
4.47425
2.35835
2.68303
4.98478
1.53785
0.23943
3.39451
4.76455
1.50524
5.32162
4.69767
4.70808
5.37729
5.04156
0.613189
1.58323
1.56178
0.390767
0.730795
5.88915
4.68153
1.70649
4.71755
5.61549
0.962199
1.725
5.91415
0.669961
1.55895
4.25425
2.75403
1.13338
4.53394
0.416687
4.13925
4.12114
4.50587
3.53928
4.90825
1.53584
5.84524
4.85857
4.8754
3.49798
0.628755
1.58456
0.567711
5.96592
5.89521
1.47265
0.6194
6.15574
5.91567
4.98358
5.94446
1.20053
4.22919
1.593
3.12711
4.70513
5.4024
4.67266
2.70302
1.48732
1.38525
5.57822
1.54216
0.149708
5.5412
1.96618
0.614196
1.5933
1.45146
1.02509
4.67349
0.433236
4.8474
0.296419
2.82375
5.3809
3.50014
0.837861
4.73216
5.33359
0.332736
4.71129
1.70106
3.91313
1.47387
1.58708
0.535704
5.11833
1.71171
0.465862
5.5613
1.67684
0.311515
1.17323
5.52612
4.25079
1.64298
0.261394
5.69428
5.65833
5.64811
1.57479
5.73727
2.81691
5.37178
1.0523
1.43028
1.5743
4.80973
0.134136
1.58383
0.433004
3.83229
4.77402
1.69912
5.68848
4.42033
0.854207
5.28271
0.271834
5.38732
1.58152
5.77816
4.86643
1.93796
1.26896
0.657748
1.26455
1.61715
4.53353
1.03904
4.63142
5.01972
1.7419
6.01378
5.89958
4.63366
2.16938
4.6825
-0.00795493
4.51782
0.269616
5.57368
0.677495
0.70303
4.88833
0.698192
1.77365
4.80124
4.80493
5.03873
4.07882
5.25092
1.62794
2.79318
5.32105
4.05206
4.23252
5.30792
5.51252
5.01621
3.29942
0.106804
0.267071
3.18288
6.03142
4.2424
0.294389
4.287
5.103
1.58821
3.29548
1.02849
0.417059
1.39588
5.19855
0.576417
0.952971
2.85065
0.835492
1.00283
4.73487
4.54479
2.69716
0.697643
5.19067
1.10432
4.69955
5.44043
0.780734
0.489873
5.42118
0.755869
0.75471
4.35842
3.05795
4.37147
4.17572
4.36245
0.441186
5.39868
1.14326
4.73578
2.70079
4.27811
4.27655
1.68117
5.15707
0.103172
5.11845
2.77915
0.93551
4.8228
4.60034
5.32189
4.01729
5.53822
3.78018
5.05448
1.70966
5.36134
0.947161
0.79468
4.9934
3.65369
4.31341
4.04481
1.18268
4.36944
0.239243
5.70841
1.61329
1.13501
1.7478
1.13683
1.01328
0.867894
0.764869
5.55779
1.06347
2.11966
4.19132
1.45452
5.34479
0.749957
3.76269
5.99851
1.65117
5.39277
5.52495
1.61847
5.26406
2.53735
0.0758678
3.80281
2.3324
4.05977
0.661547
6.04087
1.3925
3.62027
0.515285
0.473227
1.37663
1.74509
3.82532
2.06655
3.77512
1.46942
1.38676
5.05268
5.51034
5.20829
5.50768
0.326038
2.80105
0.989932
0.994271
4.69994
4.26972
1.21009
0.844221
6.03508
3.41436
4.93103
0.579449
5.88855
4.83962
5.38107
1.18512
5.46822
5.31848
1.71619
3.51661
3.06273
3.39735
4.0534
4.37561
1.31745
0.944903
1.51055
0.24768
5.0623
4.17769
1.33358
4.94747
4.64763
3.8648
3.867
4.99388
1.7133
0.325342
1.24919
4.87893
5.26778
4.39047
1.2769
5.30277
1.83713
5.14565
4.67865
0.883924
5.80195
0.329929
4.85917
0.782896
5.93616
0.250189
1.73584
5.48797
5.88138
4.20036
4.72794
5.15552
1.46352
5.66051
5.52244
5.19261
1.64816
4.7662
0.994672
0.847377
0.25763
1.63627
0.777912
5.3623
0.722741
4.49928
5.36217
3.57381
1.33094
4.43519
3.65816
4.46463
5.62932
2.95768
5.07015
4.72986
1.65201
5.15877
4.77937
1.5039
5.46177
0.754614
1.68273
4.7541
4.85646
4.40759
1.70179
1.70398
1.70451
0.0190379
4.8933
5.53346
0.967403
3.31085
4.90802
5.72628
4.82098
0.0645681
0.876181
1.56954
4.55743
0.421814
1.66866
1.69404
4.47601
4.83291
4.46533
4.4982
1.20717
1.76413
1.71669
4.35696
1.65795
4.30727
3.58402
0.606519
6.0066
0.0896973
5.13521
1.73375
3.24411
4.06675
1.75067
1.74413
5.22288
1.57821
3.538
4.73129
1.04088
1.00542
1.4553
0.91766
0.555194
4.21028
0.309386
1.40668
0.312377
4.71695
1.73575
4.80083
4.87196
0.557835
3.2641
4.67409
1.7158
0.317929
0.532181
5.66605
1.0278
5.55567
1.04193
0.683678
3.30428
0.67799
0.300313
5.23952
4.89136
1.44318
4.70608
5.62929
1.74147
5.98464
5.68904
5.54139
3.98808
5.11587
5.55626
4.06373
0.876267
4.03072
2.86758
0.860933
4.94564
0.953835
0.250491
4.95675
5.41245
1.71042
5.59209
0.496128
0.965477
4.34163
0.327261
0.532527
5.2258
1.44404
5.4739
4.63957
1.78313
4.59037
5.91709
3.30891
5.73569
1.63752
1.01426
1.00278
5.86442
3.19353
2.48564
1.11886
4.70009
0.327694
0.696826
4.36432
0.794367
1.68432
4.63286
0.289513
4.38147
5.92206
4.52411
5.39121
0.878742
1.79971
5.38206
4.53795
3.50106
0.604576
1.63812
5.65011
1.32959
4.98426
1.52365
3.82678
1.94509
4.96441
0.988985
1.18049
4.85325
4.05402
2.58998
2.54525
5.53007
0.0138539
4.0611
2.89429
1.0064
5.90463
1.77399
5.56908
3.56999
0.821521
0.852619
0.192009
1.00019
1.54132
4.69902
0.850204
4.70222
0.858005
4.48615
0.234801
0.0635771
1.73862
5.38804
0.693267
4.47523
1.57012
4.66543
1.52906
2.41735
0.235394
4.45279
2.38552
4.47196
5.74338
1.04347
4.65551
4.65664
1.76607
5.22933
5.19969
5.25439
5.60552
4.55859
1.69446
4.1514
0.650792
0.238182
0.296176
1.71774
1.76941
0.392567
6.00966
1.52772
0.804206
0.407549
4.61744
4.57973
4.08446
5.54622
6.23381
2.59219
5.53632
0.441416
0.787289
2.00139
5.85189
4.49019
5.89436
2.06528
1.50442
5.03696
4.14152
1.7821
5.02516
1.28863
3.48598
4.75857
1.34357
0.77533
4.77586
4.63431
4.1242
1.25005
1.17815
0.874879
4.64937
0.0698036
3.29429
0.765041
4.92617
0.74804
4.53563
5.61763
4.35082
4.80034
1.23344
4.35139
1.56191
0.240019
5.31976
0.37973
0.738359
1.26058
4.71393
6.007
3.7987
2.77352
1.88405
0.706708
2.81861
1.71114
4.5859
3.3434
3.85787
5.69443
5.74231
1.37804
0.665856
5.80512
1.71901
5.28624
5.89375
3.56784
0.287949
0.557988
0.42375
0.839408
0.273506
0.51056
0.691912
4.88558
4.32441
0.700134
4.12471
0.241641
5.43926
4.11449
4.77095
3.93345
0.548714
5.86999
0.754401
3.6461
3.91386
4.54515
0.241545
3.0169
5.00778
5.81872
0.917035
5.12963
0.916906
0.0860293
5.77346
5.15783
5.79135
2.5763
4.05669
4.28938
1.6539
0.669893
0.795085
5.66489
0.672342
4.59306
1.80299
0.994397
4.79039
5.263
4.80831
5.0647
5.43566
1.4603
1.13357
0.778534
4.37037
4.31188
4.38579
4.59079
4.99153
5.01555
0.523801
4.3725
5.35673
5.05868
5.04352
5.17213
2.60684
5.20269
0.529324
5.91526
0.511441
1.42718
3.15741
2.57772
0.937808
1.06455
1.19169
2.23768
1.72316
5.78265
5.77615
4.85255
5.68658
0.820558
4.77009
2.41996
0.566706
1.72536
5.0682
6.10296
5.66411
4.68994
0.603145
0.98823
3.76083
5.72442
1.14702
1.78446
0.933435
5.40672
5.93685
4.71225
0.675478
0.0130102
0.693596
1.6352
4.53903
5.90026
0.95251
1.66172
0.0479869
0.0406276
1.0127
4.71999
1.54669
4.9586
1.32317
3.59829
1.59898
4.94648
1.52044
5.9015
1.46967
0.413587
5.41486
4.5647
5.41188
0.00950133
2.22401
4.40371
2.85083
0.489806
5.67079
0.484307
1.64107
0.0139278
0.770948
1.68349
1.68838
0.482191
4.75789
6.10213
0.938766
4.4804
1.6394
5.781
3.19675
4.46826
1.64777
1.3634
0.858185
1.63361
4.08571
3.12984
0.794339