/*--------------------------------*- C++ -*----------------------------------*\
  =========                 |
  \\      /  F ield         | OpenFOAM: The Open Source CFD Toolbox
   \\    /   O peration     | Website:  https://openfoam.org
    \\  /    A nd           | Version:  9
     \\/     M anipulation  |
\*---------------------------------------------------------------------------*/
FoamFile
{
    format      ascii;
    class       surfaceScalarField;
    location    "0.5";
    object      phi;
}
// * * * * * * * * * * * * * * * * * * * * * * * * * * * * * * * * * * * * * //

dimensions      [0 3 -1 0 0 0 0];

internalField   nonuniform List<scalar> 
143364
(
-9.99887
1.93765
8.06121
-4.24145
8.70101
-4.45956
9.87581
0.99731
-10.8731
-13.3478
8.8891
4.45869
-0.221996
10.0978
2.94465
-8.94021
5.99557
8.1696
0.655155
-8.82476
-0.769947
-6.69977
7.46971
6.40697
-11.3421
4.9351
10.1583
-1.98869
8.69271
-8.34844
-0.344264
1.94064
6.75207
0.061044
8.255
-8.31605
-10.4133
5.84176
4.57155
-9.95675
5.82888
4.12786
10.1734
-2.56641
-7.60704
2.26998
7.93343
-10.2034
6.8605
-10.5616
3.70112
-0.711153
-8.99393
9.70508
0.277737
9.89571
0.392275
6.09381
-6.48608
-0.697838
8.44359
-7.74575
5.84585
-9.32413
3.47827
9.74011
-6.79546
-8.4482
7.75036
-2.36728
9.11665
-6.74938
-11.2243
7.15214
4.07213
-9.70507
0.764854
-5.65554
6.04782
-5.34079
11.1866
-2.52598
8.93295
7.93988
-9.01293
1.07305
-6.90033
-4.32393
-10.8037
11.5014
-0.697711
-8.90573
10.8804
-1.9747
-8.39058
-9.48759
17.8782
10.9984
-9.89184
-1.10655
-17.0925
15.7138
1.37877
9.63307
-1.69319
7.70455
-16.0951
8.28931
-11.8916
3.60228
-0.0540881
-7.53435
7.58844
-6.48745
9.53734
-3.04989
4.62586
-10.5631
5.93729
5.1926
5.58369
-10.7763
-13.1996
4.61759
8.58205
-10.6711
-2.52849
-4.81823
8.69327
-3.87504
11.8643
-6.63175
-5.23251
3.77736
4.78978
-8.56713
9.14543
0.0846143
-9.23005
6.83823
-10.6008
3.76255
-1.60415
-2.23605
3.8402
11.3896
-2.24413
-12.6285
8.49789
4.13065
-2.74343
8.50936
-5.76592
-12.2722
-4.82032
10.2031
-1.90239
-8.30075
-2.9329
9.74672
-6.81382
-1.32622
-5.93775
7.26397
-11.2506
8.44296
2.80764
4.71034
-7.45377
9.77293
4.19277
7.67149
1.94121
8.03695
-9.97815
-13.1369
-1.50201
14.6389
-11.7258
7.9787
3.74714
11.3783
-8.12721
-3.25105
12.6703
-7.85948
-4.81077
0.349215
-0.746102
0.396887
2.13005
7.34812
-9.47817
-12.0836
8.24557
3.83804
-3.67415
12.6534
-8.97922
-3.58265
-6.83067
-0.359604
0.213838
0.145765
6.42157
-12.0158
5.59423
11.5428
-11.5428
-9.30919
5.06774
-7.1254
-2.18379
-4.26921
-4.20158
8.47079
12.3964
-8.13178
-4.26459
-4.37014
-5.65351
10.0236
-6.0779
-5.16075
11.2386
3.01189
-8.98661
5.97471
-0.916837
-7.98889
-11.5165
7.14637
0.269869
-1.80219
1.53233
-7.88536
0.733254
7.15211
4.91242
-1.14226
-3.77016
-13.2547
11.4578
1.79688
-0.175962
-0.183641
1.71834
7.83702
-9.55536
-1.63187
-0.835466
2.46734
-2.69669
-0.00934711
2.70604
-7.727
6.95705
-1.66019
8.43299
-6.77279
-9.99557
11.8288
-1.83322
-15.3765
9.8283
5.54821
9.40246
0.800679
9.23614
-6.40776
-2.82838
-5.50904
12.3473
-9.35284
2.86539
-2.0225
-6.02202
8.04453
1.61803
-1.34817
-5.12214
8.36644
-3.2443
3.54655
4.19795
-7.7445
-3.45517
-3.2519
6.70707
-1.29638
-7.04549
8.34186
1.78172
-9.69399
7.91227
-3.32253
13.415
-10.0925
6.26075
-1.34833
8.26632
-8.82236
0.556047
6.51688
1.27772
-7.7946
9.16352
0.806419
-9.96994
-9.36695
11.5158
-2.14887
2.78499
-8.86289
-6.09344
10.518
-4.4246
6.121
2.66215
-8.78315
-4.91051
8.83119
-3.92069
3.92204
-9.8333
5.91126
6.62499
5.77138
4.97485
-10.2564
5.28152
5.94397
6.72628
-0.522868
-0.952333
1.4752
9.14076
-10.2061
1.06537
6.64907
-0.52103
-6.12804
-1.44722
0.924355
9.15447
0.637155
-9.79163
-16.0947
14.3023
1.79238
-1.89558
8.54466
-15.4147
-1.9823
17.397
-1.14629
-9.55706
10.7033
-10.5935
0.87388
9.7196
11.1706
-7.36164
-3.80895
9.6135
-6.91552
-2.69798
-0.249272
-7.60708
7.85635
5.54514
2.54654
-8.09167
-8.47352
7.1473
4.33064
-4.69198
0.361335
-2.58896
0.957091
-11.4906
7.72867
3.7619
12.2187
-6.34771
-5.87102
-12.4611
7.95381
4.50733
-14.5771
15.008
-0.430814
0.323635
-9.25657
8.93294
-10.1641
-4.41303
-10.1935
10.103
0.0904705
-10.3569
0.632507
9.72436
-6.69594
8.98426
-2.28832
-8.23183
-0.594466
8.8263
-3.17422
-4.24354
7.41776
-4.14678
-7.57907
-5.48662
10.0603
-4.57365
-5.57732
-4.61616
-6.88053
-3.07622
3.5675
7.72553
-11.293
-10.7282
-4.64829
-10.2351
9.91589
0.31918
-0.609994
-9.62508
8.49677
-4.95023
-7.45934
-2.10191
9.56124
-7.65801
7.65801
7.83826
-2.29312
-0.464674
0.278501
0.186174
-6.66052
10.228
-6.49215
10.4478
-3.95564
-4.80564
9.61091
-4.80527
-0.250836
8.44967
-11.3507
2.90106
-8.38346
2.96384
5.41962
7.63641
1.20954
-8.84595
10.0242
4.3912
-14.4154
-10.6386
4.38235
6.25626
-8.64886
12.5709
-2.82696
-5.17468
8.00164
-1.31113
8.94753
16.3558
-10.6989
-5.65692
-6.23938
10.4731
-4.23373
-1.21127
3.26041
-2.04914
-5.82608
15.8503
6.08188
-11.9436
5.86168
-14.0646
2.91142
11.1532
0.289656
0.342088
-0.631743
0.144424
8.47403
-8.61845
8.1013
1.30142
-9.40272
-1.14559
-7.90523
9.05082
-0.283502
0.573158
-9.78701
-2.67413
6.71979
-9.2862
-8.00976
4.83554
10.767
3.4247
-14.1917
8.04736
-6.32902
9.12595
-6.11406
-7.47441
-0.909046
-11.3853
7.02474
4.36052
12.8392
5.13095
-17.9702
-5.28941
8.74541
-3.456
3.11861
-9.21205
4.31525
-9.12089
-7.96826
6.23001
1.73825
-8.2171
1.97772
2.87068
-4.08196
-9.25908
0.248737
9.01034
3.76746
4.33371
-8.10117
-11.5121
2.25301
-5.00498
8.77245
-3.39943
-7.16202
10.5615
9.27408
0.355974
6.76674
-5.84278
-0.923955
-12.0483
-0.278453
-8.16356
8.44202
-12.4113
3.1976
9.21371
0.0142213
6.61077
8.36735
0.787124
-14.7149
10.4764
4.23847
2.62203
-8.10865
-6.60021
-4.4626
11.0628
-14.9847
14.9847
-6.40781
11.114
-4.70624
2.82303
-9.23084
-0.221217
0.570432
11.0186
-6.22886
3.98017
8.23857
-5.86148
10.3114
-4.44992
15.4054
-8.62374
-6.78168
6.6357
1.01008
-7.64578
-7.0005
-4.38476
-9.74372
-2.91999
12.6637
-9.34107
2.09683
7.24424
7.74821
7.65721
-7.78426
2.66212
6.46289
-6.40184
9.04075
-0.939448
8.43884
-8.19177
-0.247063
5.1765
4.05964
7.90364
-11.4985
3.59484
14.1207
-7.9552
-6.16546
-9.35097
9.80811
-0.45714
1.84514
-11.1961
15.3261
-14.4117
-0.914369
-9.37898
2.99219
6.38679
-4.42334
-7.66027
-10.6108
2.72501
7.8858
4.17246
6.84618
2.10131
-10.9753
8.87403
-14.0128
12.8124
1.20035
-9.86849
9.4697
0.398783
4.27197
7.10629
4.86439
-0.533742
8.71268
-2.87092
1.1559
6.7032
-7.8591
7.61786
2.02592
-9.64379
-10.0758
3.24689
6.82892
-4.1109
-7.1397
1.21057
-8.69103
7.48046
4.90049
3.36583
-9.33957
-0.00150712
3.07118
0.656094
-3.72727
-2.45248
-12.5322
-10.4877
3.65003
6.83764
-7.73542
0.145047
7.59037
-8.26372
-0.880894
9.14461
3.22225
4.97685
-8.1991
3.15249
6.461
9.42149
1.5769
-6.92935
8.08524
0.38422
-8.11964
-9.11966
7.36183
1.75784
-6.66857
12.1627
-5.49414
-10.5972
4.1051
-9.9665
5.056
5.40773
9.91838
-8.41883
-1.54767
-2.10583
-7.01383
3.18626
-9.85483
-8.76139
6.73888
-3.29318
-7.17635
10.4695
-13.5859
7.08668
6.49924
-0.444455
9.50858
-9.06412
9.75666
-0.59314
12.6461
-2.57377
-10.0723
4.666
-7.98853
-2.22632
9.0742
-6.84788
-0.191483
7.05198
8.754
-2.90614
-5.84786
0.118354
-8.00372
3.88571
6.83357
-10.7193
8.32215
-4.43643
-9.23426
9.23426
6.14805
-11.5062
5.35817
-7.87335
-5.08665
8.61415
-3.5275
5.07488
-6.73507
-1.57903
-14.0646
-12.8319
4.17299
8.65888
12.7081
-4.73565
-7.97249
12.5374
-8.38101
-4.15636
-3.74186
-6.86896
6.85842
1.01947
-7.71541
-3.05634
9.66162
-6.60528
4.40316
3.84314
-8.2463
6.80138
1.80029
-8.60167
8.1477
-9.52027
1.37257
-8.35441
-1.51408
-3.69148
-7.25959
10.9511
3.4659
4.93985
-8.40575
1.35998
-8.26083
6.90085
7.97922
-0.298829
-7.68039
1.63703
6.47461
-8.11164
-7.0658
-4.70079
11.7666
8.20435
-0.225137
-0.269646
0.531104
-0.261458
4.30589
8.34017
-8.00815
-12.2444
-3.85027
7.18386
-5.0538
1.71295
-5.2299
3.51695
-10.1141
10.1141
-4.72512
13.0594
-8.33424
-10.2425
6.56833
-0.490863
-0.77355
7.47343
-6.69988
8.53178
-3.90592
2.82689
6.30861
-9.1355
-3.99128
-3.21314
7.20442
-10.0905
-3.95717
14.0476
15.9646
-12.2181
-3.74652
8.72881
-6.78761
7.59382
1.13679
-8.7306
-3.75072
-6.8879
-10.7993
8.25264
2.54669
0.75937
9.8133
-10.5727
-0.0464181
-0.414592
0.46101
10.8521
-10.8521
-8.03415
11.491
-3.45681
8.27914
-1.47776
-7.8312
-3.65937
8.42243
-4.57929
-10.9183
4.66834
6.24992
10.9764
-7.93615
-3.04028
2.18789
0.539527
-2.72742
-11.7011
8.62893
3.07216
5.71858
-6.86417
-2.66816
10.0988
-7.43063
-5.87904
-5.82205
-9.7672
7.09904
-2.74905
11.8898
-7.106
-0.0268878
7.13289
4.54712
4.23089
-8.77801
9.27408
10.5612
-0.205564
-10.3556
7.08672
4.30284
0.971577
-8.84492
-6.04473
-4.38709
10.4318
8.52943
-7.31886
-10.8145
4.76974
-2.03692
-8.55175
10.5887
-9.5087
7.47178
-8.77316
8.35716
0.415999
-7.53592
-1.23724
-12.1838
2.45725
9.72656
-1.30709
-6.23713
7.54423
1.1696
-10.2967
9.1271
-7.16462
-0.803635
-7.22679
-2.657
1.52954
1.12746
3.48218
-7.39073
3.90854
8.02629
-8.02629
-9.2758
5.58432
6.78659
9.17804
-2.96076
-6.31504
-1.74935
6.94195
6.92569
-3.44351
8.14048
-11.7973
3.65686
12.8392
-7.3708
0.264794
2.56906
-10.076
7.50696
-5.44795
6.69268
-1.24473
6.91362
4.06281
1.70782
6.73102
-11.4382
13.2807
-1.84255
-7.46108
2.64285
-0.791712
6.38999
-5.59828
-4.03693
-9.54898
6.79303
-11.3144
4.52132
-7.10827
-0.262527
-0.265524
-0.367308
0.632831
1.73401
-7.02341
-7.00883
-0.975735
7.98457
-9.46113
9.46113
6.45673
-10.2381
3.78137
-10.8007
5.28927
5.51142
-7.88631
12.6346
-4.74828
3.45246
12.767
-16.2194
9.71259
-2.1607
-7.55189
10.9753
-6.46879
-4.50654
8.06199
2.91334
-0.463892
8.61159
1.28947
6.47658
-7.76605
4.77925
-10.4328
-6.13208
13.6401
-7.50804
-4.0324
-4.51099
8.5434
10.2248
-2.32116
9.70558
1.26336
-10.9689
-10.5987
4.57671
12.0021
-4.43556
-7.56651
10.0106
-7.31303
-2.69756
1.68495
-0.557834
-1.12712
-16.0516
6.56399
-6.42948
-9.62211
5.6204
-3.90745
9.87656
-2.15738
-7.71918
-8.51592
2.32751
6.1884
-4.75634
12.8968
9.19194
-0.416247
-8.77569
12.8047
-2.92815
0.979942
0.705007
-14.7214
10.5998
4.12161
-9.23198
-1.56871
-5.45589
9.7576
-4.30171
5.59194
-7.2128
1.62086
9.81909
-6.9922
1.62534
-8.68607
7.06073
0.0582
-3.26246
3.20426
10.0397
4.44513
-14.4849
1.49742
-9.84586
11.4699
-9.57376
-1.89612
4.24997
-4.19177
-14.5136
-0.901058
16.5325
-6.49273
1.73061
6.84479
-8.5754
-6.04923
7.77983
-2.80358
1.19944
6.18747
1.9015
-8.08896
-7.16273
1.71479
1.94849
5.56312
-7.51161
0.0482368
-7.81936
7.77112
-4.231
5.85233
-6.56348
9.15572
-3.79721
-5.3585
10.7932
-10.7932
-3.92211
-7.59439
5.47495
-15.5654
-1.48718
-0.00176522
1.48894
7.76021
-9.0673
4.68301
4.94705
-6.21276
-3.97946
10.1922
-2.17015
7.37478
-5.20462
11.2465
-6.8416
-4.40488
-9.21327
-5.47063
14.6839
11.8474
6.03074
-13.9725
4.2445
9.72804
6.60847
-9.64715
3.03867
0.355972
8.0937
-9.61129
-4.36124
2.38876
6.7475
-9.13626
-11.5804
6.72994
4.85044
-0.0336841
8.32299
-1.03104
-10.3171
8.13879
2.1783
-2.15469
1.20236
-11.5007
8.68644
2.81425
-9.48715
8.69452
0.792635
-10.2549
4.90716
5.34771
-12.2925
6.92
5.37255
-0.0119745
0.287764
0.106308
-0.394072
-7.23925
9.27622
-2.03697
-3.17298
-4.3086
7.48158
-11.8218
7.59076
-6.10565
8.38548
-2.27983
1.00741
9.78583
-1.54345
-0.611243
-9.49194
3.38629
-11.3631
3.47675
-9.88207
1.61835
8.71494
-10.0113
-9.17646
1.46337
7.71308
-7.74558
-1.1955
8.94108
8.54415
2.99868
3.09246
7.38839
-10.4809
-3.64444
-6.06063
7.55756
-7.80683
-6.59563
7.32889
-1.8347
-7.65724
1.06492
-9.29675
8.41618
-2.6703
-5.74588
11.3414
-7.54744
-3.79392
-1.69433
-0.96267
-7.82489
10.9173
-0.357129
-9.00982
-8.95442
9.45464
-0.500223
-10.2633
5.6971
4.56615
1.76405
5.34439
-7.10844
0.299303
-9.25372
-5.53994
10.0871
-8.71646
2.01669
9.65192
-1.9729
-7.67903
10.9078
-10.9078
11.0007
-2.98163
-8.01904
-2.63381
-3.28652
5.92033
2.207
-1.53739
-0.669609
-5.25005
2.61624
-0.169197
-2.86622
3.03542
8.9544
-0.426223
-8.52818
9.9189
-0.368341
-9.55056
-0.636774
11.0283
-10.3915
-10.4877
6.26148
-8.62875
-10.0094
-1.37576
11.3851
-6.64498
-4.85572
-12.4563
2.56449
-10.7966
1.43531
9.36131
-9.63026
2.37992
7.25034
-0.0139515
-7.2504
0.184599
-6.52506
0.11471
6.41036
5.82602
3.82591
8.74771
2.49877
-6.13257
6.07849
-9.78007
2.62802
7.15206
-2.80685
-6.42741
7.57243
1.85798
-9.43041
0.0534124
-7.82846
7.77504
9.92954
-0.216951
6.03468
-12.1668
0.200186
-0.246604
0.0785224
-10.8751
-4.67201
7.06077
-4.29055
7.5128
-2.07536
8.88356
-6.8082
7.37928
10.8744
-3.30196
-10.1404
-4.58098
2.61076
-2.77996
1.42804
-11.5684
4.59996
-12.4424
7.84243
2.07738
-9.18565
2.26743
7.45395
-9.72138
-7.22118
0.5041
6.71708
-12.9156
3.70236
3.04023
-10.2614
-11.8622
10.6751
1.18709
-2.01901
8.72337
-6.70437
-9.5977
14.1079
-4.51024
-3.2468
15.076
-11.8292
-10.3569
1.98312
-2.9011
0.917979
-9.70213
-0.896601
-4.2858
6.94796
5.89943
-3.95094
6.38603
-11.7464
5.36038
0.625448
-8.92621
8.30076
-7.82219
4.36701
-9.93137
1.52404
8.40733
5.56856
2.55344
-8.12201
9.3451
-3.84686
-5.49824
-11.6578
7.75429
3.90356
-10.5935
9.2705
-0.316093
7.33308
3.2147
-10.5478
6.8567
-9.08301
-6.19255
-5.4653
7.33006
-0.17879
0.636218
-0.457428
8.86668
-8.86668
-6.24921
4.46063
1.78858
0.483737
-0.662528
7.42991
1.91519
-7.27795
-4.30243
1.76946
-0.72746
-1.042
3.94412
-8.96542
5.0213
8.06122
5.2101
-13.2713
4.8501
4.68724
-14.0501
3.75654
10.2936
-17.635
4.38033
6.61774
-5.25776
11.0481
-11.0481
0.041533
-8.71643
8.67489
-6.31395
-0.936447
3.46837
-9.78232
-0.262365
-2.30569
8.29117
-5.98548
-10.3581
8.05245
4.95711
-12.0026
1.20268
-10.4435
9.24086
7.9457
-8.22415
8.28813
-6.01815
-8.82341
10.0261
1.91023
-0.140775
-9.40141
-6.48158
15.883
0.800801
7.40355
-6.26454
-12.0192
2.6178
3.65015
-9.86291
-4.33584
-8.12048
3.94469
-7.11767
-4.51084
-2.06269
6.57353
0.349704
-9.27027
8.92057
-3.01877
-12.1989
15.2177
-9.16389
9.16389
-3.57898
-7.02181
-9.43594
9.43594
1.40139
-1.40139
11.3431
-5.41709
-5.92598
9.73035
-10.1952
0.464874
-7.91018
5.19325
2.71693
-7.89012
8.64949
-6.99707
4.82691
7.48304
1.67268
2.88746
8.11322
1.04187
1.16513
-9.52352
9.52352
-5.19949
-2.58487
7.78436
2.82325
-8.67187
8.0351
-0.728519
-0.216721
0.94524
2.90264
-6.89392
-4.67007
5.95953
-8.2329
6.72882
1.50408
-8.97101
2.3708
1.71545
-1.14347
-0.571981
-9.01865
9.89253
6.92165
5.71293
-2.61553
-8.1838
-4.54225
-3.15659
7.86693
-3.55154
-4.35864
8.48554
5.63512
10.1307
-2.26039
-7.87036
6.01202
5.15858
11.8043
-7.37798
-4.42631
-0.318079
1.53958
-1.22151
3.07526
-8.16191
9.70126
-5.96591
-3.73535
6.58841
-9.30785
2.71944
-0.238617
0.747283
-0.508666
-9.8835
10.516
1.88484
-8.52593
6.64109
-13.3166
7.3883
5.92835
0.189991
-9.36645
7.42258
4.04751
-6.87447
-9.2176
8.95197
0.265625
-9.5977
7.84783
1.85343
-0.456989
0.456989
-7.14055
6.6961
-0.314596
0.150607
0.163989
2.50949
-8.97828
-6.16963
10.2987
-4.12906
-10.3412
6.62052
3.72068
-2.22544
-7.47254
9.69798
15.0705
-15.0705
-10.17
7.94458
8.65293
-11.6248
2.97184
0.175857
8.47707
-0.0112168
-9.47594
3.03457
-1.05145
-3.49876
10.2186
1.42109
0.294364
-8.63797
3.43849
1.7499
-3.91284
-2.33637
-10.2574
-1.10834
11.3658
-1.84834
-8.85583
10.7042
6.05903
-10.7841
9.50516
-9.50516
8.20983
-9.22668
1.01685
5.27693
5.49171
9.57877
3.06277
-1.41684
-1.64593
8.34375
-3.06393
-5.27982
-6.39334
-1.92925
8.32259
10.7713
-6.78498
-3.98632
1.02501
-8.49755
-10.1346
4.97389
1.80236
-7.972
-5.26815
-4.05519
9.32334
-9.46384
7.63286
1.83098
1.74253
-0.405298
-1.33723
-4.55397
-1.40909
5.96306
-8.05712
0.166998
-0.850779
-9.08059
15.3886
-14.4443
-0.944375
1.24363
-0.717073
-0.526555
3.84169
8.69569
1.11005
7.2564
8.11462
0.592887
-8.7075
6.87418
-8.88673
2.01254
-7.36707
3.09786
-9.37898
-5.02892
10.3886
-5.35966
0.289545
7.27552
-7.56507
-6.75654
11.6194
-4.86286
8.70141
-8.70141
-4.73967
1.50807
3.2316
-9.87239
3.76041
6.11198
11.2977
-3.59147
-7.70627
1.25289
10.0448
-4.00706
11.8008
-7.79371
-2.55178
-4.02074
10.1271
-6.10641
-10.3463
-0.4574
1.09891
-0.817324
-0.281586
-0.150607
0.0743854
0.0762211
5.9755
-9.98256
1.69404
-7.55552
-2.11258
2.65211
6.54495
4.76758
-11.3125
-1.75506
9.33633
-7.58127
9.64469
-11.6986
2.05387
0.182024
-8.121
7.93898
-5.10551
7.37294
-2.3879
-5.845
-7.97677
-0.213042
7.83091
6.39834
0.368392
10.557
-10.557
10.9246
-2.83026
-8.09431
9.05719
-7.50638
7.79592
10.8852
0.295302
-9.27484
1.78057
7.49427
-7.87412
9.56647
-1.69235
-6.58617
-3.27152
9.85769
3.16617
6.47853
-3.95685
11.8382
-7.8814
6.56736
5.72938
-9.68623
-9.9406
5.44978
4.49081
8.40255
-9.16275
0.760193
8.61157
2.85831
5.34621
-8.9886
4.95129
4.03731
-0.150607
2.39051
-9.14705
6.00645
5.33491
15.8833
-18.3357
-11.5425
-0.390526
11.933
3.63687
8.16742
-9.70133
9.70133
8.86696
-2.06344
-6.80352
4.93722
-10.2054
1.17273
4.41921
-8.47528
1.01594
-4.46789
3.20348
5.6632
0.64189
-8.08765
7.44576
0.821583
8.11352
-8.9351
-7.69864
-0.420975
8.11962
-10.9288
9.09415
-8.08693
3.12298
4.96394
0.0335972
-0.450678
0.417081
-6.64789
10.521
-3.87311
-6.99893
0.720574
6.27836
1.20873
-7.85663
9.76197
-4.19341
2.15619
-10.1903
-7.38483
9.2428
-10.5949
15.2789
-4.68404
5.10696
-10.1016
4.99467
9.05972
-8.59678
-0.462947
-1.38029
6.94341
-13.2777
3.02033
-6.7548
6.80821
1.97098
11.2473
-2.38029
-1.41742
7.60489
0.215844
-7.91449
9.59334
-3.11798
-6.47536
-2.8957
2.8957
10.2307
-11.9473
1.71666
2.67544
8.05735
0.899913
-8.95727
-9.41245
6.11927
7.58409
3.1872
1.61817
5.24409
-6.86225
-6.82907
2.2751
10.3545
-10.3545
-0.369326
10.5628
-16.48
5.91714
2.61838
-9.74378
-4.53741
-4.47543
9.01284
-4.67347
-3.09615
7.76962
-9.98922
0.222018
-2.79628
-7.19294
7.73195
2.56674
3.45374
-9.82436
6.37063
17.6699
-7.04956
-10.6204
7.22985
-11.6885
4.45864
-6.29733
-7.01932
-5.21457
8.6683
3.38445
4.0389
-7.42335
-7.38169
-1.46486
8.84655
-4.20625
8.80621
-3.04476
-7.77821
10.823
-1.27785
-2.64038
3.91823
-9.72076
6.4794
3.24136
6.9479
-8.9669
2.65537
4.27032
8.94578
-8.94578
-3.22218
6.60663
-15.3041
14.0293
1.27483
8.48265
-6.7199
-2.2687
3.07998
7.30319
-10.3832
-9.01931
9.94131
-0.921999
6.66793
-5.53114
3.98391
-8.00465
-5.29735
4.65371
-7.90562
10.546
-8.74359
8.77569
3.93244
-13.7613
12.3011
1.46018
10.2683
3.37183
-1.24036
-7.25088
8.49125
-7.17644
9.06128
5.97541
-14.6692
8.69382
-9.51746
8.2771
-12.1998
7.39268
4.8071
6.78526
-13.5074
6.72211
7.16342
-7.46225
15.1471
-7.08589
0.54139
-7.92308
-5.88245
-4.45874
-8.35345
2.19624
6.15722
11.7787
-8.74869
-3.03001
7.39161
-13.1537
2.9285
10.2252
7.15864
-1.35398
-5.80466
9.01319
-9.01319
12.0471
-10.855
-1.19209
-13.1369
8.57525
-1.41183
15.3561
-15.3561
1.18004
1.89794
-3.07799
-8.31977
4.40303
3.91674
1.44174
-10.2258
8.78407
8.10294
-6.46591
-8.54455
1.29367
6.04041
-9.08517
0.52775
-1.25627
4.56985
-1.49867
-11.3624
1.88895
9.47343
-4.72503
-4.56117
13.8568
-10.7068
-3.14996
9.41936
-4.3124
1.40903
-11.7636
10.3545
5.79597
7.25701
1.15917
0.758964
-8.08128
7.32232
-15.5238
13.575
1.94876
-0.320813
0.320813
-0.765122
8.39733
-7.63221
-11.3346
-0.957999
-2.05378
-6.46214
2.25847
-8.73971
6.48124
2.00255
-8.39589
-10.3832
10.3832
-9.43539
10.8467
-1.41127
9.83904
1.06251
-10.9016
-14.5771
11.5583
10.5667
-10.2517
-0.315022
-8.11713
-4.71474
-0.276611
-7.49706
7.77367
-14.0501
7.115
-6.1826
6.94157
11.256
-4.4707
8.2635
2.30317
-7.0394
-3.2777
7.88796
-8.33944
0.451477
-7.68392
0.311691
7.37223
-5.41629
-2.26764
-1.56589
2.74593
-0.33726
-8.20313
8.54039
9.81976
-9.73515
-8.01062
7.67336
-3.13067
6.55271
-3.42205
1.34125
8.47205
3.3213
-6.45196
7.57413
-7.93126
-11.0044
7.44368
3.56075
-5.17554
-9.06934
9.06934
9.46348
0.266869
-7.432
-8.33959
0.79378
7.54581
10.1098
-2.53567
8.6982
-2.08972
6.08349
-11.3938
5.31032
-0.198538
2.09648
-3.35334
1.78745
-7.1996
0.674532
5.60014
-7.46814
1.868
-3.19247
4.48394
-1.29147
-3.05358
-5.13819
0.871233
6.80625
-7.67748
3.85197
1.5115
7.23391
8.30753
-0.884952
-3.23565
-6.48511
-12.5586
11.1397
1.41895
3.14572
5.55569
0.951855
-7.22089
6.26904
-0.445632
0.0310399
1.71592
8.51474
7.37918
-8.84403
6.20489
-12.5288
6.32395
-0.854422
8.46877
-7.61435
-6.28923
10.7039
-3.32473
-2.88096
9.08584
-0.885484
7.36207
-4.33899
-8.28956
-10.3886
1.15665
-3.50294
-3.30059
-6.40074
-8.17056
7.37885
-15.5039
3.06754
12.4363
1.59714
-0.394781
-6.83839
9.09686
-0.0282607
-9.20288
9.23114
6.13116
-5.25993
9.94719
-6.98397
-2.96322
0.823424
6.33522
-9.28139
9.28139
0.563494
-8.36989
7.8064
-9.08562
7.77528
1.31034
7.51691
-9.79674
8.58716
-11.487
2.89979
8.72336
-16.8031
8.0797
0.311579
8.27558
-6.03084
10.3367
3.95708
-7.53973
-3.21753
11.9409
10.5056
-2.75971
-7.74589
-5.9612
-0.557403
6.5186
-7.61085
10.5223
4.42588
6.68817
-4.49911
-6.32261
10.8217
7.14574
2.82867
-9.97442
-15.0902
10.8332
4.25704
-1.55932
-1.13737
-8.15323
8.15323
-4.75326
9.72811
7.15897
3.34663
-3.99888
-3.67834
7.67721
-6.39051
-2.13804
7.21292
-6.85865
-2.22697
-0.933536
14.161
-4.34397
-9.81704
6.20783
-10.2067
-2.97212
4.51794
-1.54582
-14.1704
5.75938
8.41102
8.86008
-7.41834
-3.15902
-5.72207
8.88109
0.410249
-9.70768
9.29743
-8.76922
5.61019
0.42164
-6.44458
6.02294
-3.84439
-11.6794
9.59334
-5.4034
5.21192
6.31531
-9.1941
2.87879
-6.66507
-1.48815
-3.6797
-4.67376
-1.55205
7.63554
-2.63703
8.67171
16.6766
-10.604
-6.07258
-1.88129
8.1966
-2.65547
-4.13679
6.79225
13.0208
-10.5579
-2.46293
-6.62253
6.9785
5.75729
-9.5442
14.4448
-4.90064
11.2228
-2.72969
-8.49313
-0.871759
8.15151
-7.27976
-2.58118
-6.94234
10.5021
-2.19455
11.5607
-0.337881
-11.3043
4.68179
-3.57565
-11.4934
-1.06522
-4.35351
-8.26096
12.6145
1.90202
-8.48917
6.58715
-12.1644
8.23396
3.93046
9.96536
2.688
2.31105
-8.89722
-3.93419
-0.854545
4.78874
-2.77814
-6.65779
-6.90315
-2.40096
9.30411
-7.5535
9.49413
11.8698
1.15096
-8.47954
0.926044
-3.99889
-1.84389
8.75945
-0.702101
8.7732
-0.191522
-8.58168
-11.1415
12.9236
-1.78211
3.71927
5.77486
-9.32394
2.787
6.53694
-1.95595
-9.18556
-4.51778
7.50997
1.12834
5.46007
1.20366
-0.874702
-0.32896
10.5816
-10.1987
-0.382852
-12.0902
8.33948
-0.304908
0.767599
-0.462691
8.53103
2.03016
15.9213
-15.9213
-8.74178
-3.4565
10.6222
-7.16572
-1.02991
-7.14918
8.17909
-3.51078
7.16646
-3.65568
7.58351
-3.01587
-4.56764
-3.16141
-7.40022
3.87953
6.97255
1.0807
2.71509
-3.79579
8.16579
3.88127
-9.0316
1.77201
7.85706
6.57654
-6.01305
-5.15278
8.87206
8.03701
1.97357
1.25574
6.78127
-8.38101
-6.84041
11.5839
-4.74348
4.97264
-12.8649
7.89225
10.6429
-3.17116
-7.47177
-5.42815
-1.71029
7.13844
3.77376
-8.31117
-5.94398
6.26761
-1.18635
-0.953593
2.13994
-8.58342
2.37724
6.20618
-0.662967
7.99604
1.36845
6.86921
-8.62428
1.25608
8.98964
-10.2457
11.4068
-11.0498
-0.356956
0.561662
7.12807
-7.68973
5.72871
3.33101
-9.83651
-1.5573
-8.61091
-1.26148
8.59381
-7.6769
-0.916916
-13.9645
12.8562
7.65269
-5.21306
-2.43963
-8.45808
2.49688
-7.25877
9.75875
7.39116
-9.3204
11.024
-0.89329
3.77615
-5.83884
-9.37479
10.6309
-6.6449
9.05893
-2.41403
-8.1488
4.9922
-10.0152
0.497748
0.0163702
10.6266
-7.7852
-1.84506
0.304513
-7.61754
9.19194
-16.9988
7.45457
9.548
2.0714
11.4606
-6.25968
-5.20094
11.5542
-0.0935854
-4.09472
-7.70262
-7.50956
5.24917
8.64209
-1.84906
-1.38131
-8.55603
9.93734
5.55276
12.1172
-9.31553
6.5416
2.77393
-0.991592
-9.89598
10.8876
10.2179
-8.21172
-2.00618
2.17379
-10.129
-8.36848
-0.0503512
-8.70314
-6.98212
1.95948
-9.19873
-14.4714
1.87114
12.6002
-9.73938
9.73938
7.5063
8.68856
-10.0831
1.39453
-2.90043
-2.06802
-7.24752
-7.50679
-0.989988
9.67855
3.95056
-3.29447
-6.89303
2.94957
6.55559
6.73146
-6.1698
0.436666
-0.148902
-1.18635
9.02634
-0.513113
-8.51323
11.6704
4.86208
-8.48985
9.78194
-0.755594
9.35834
-11.6995
2.34116
0.351434
7.34661
-7.69804
-1.39926
-6.69398
8.09324
7.76618
-6.00213
7.76007
-7.40864
-12.0883
3.53659
-9.4374
-0.945787
-8.99429
8.74686
0.247425
7.13016
-6.67888
-5.40946
-11.7469
-3.55721
-6.83883
7.93048
-4.76432
-12.4985
8.54132
-5.94127
-0.225715
5.26455
-5.03883
9.20902
0.893544
-10.1026
1.54517
5.02434
-6.56951
-12.1946
0.832202
7.46597
-6.00628
6.64817
10.3187
-10.3187
10.7072
-15.0608
-10.6989
-5.0637
-4.29251
9.35621
-5.80591
-3.50194
7.04103
5.76368
1.26029
-5.39005
4.12976
-9.25849
4.58501
6.23756
-9.80787
2.59446
7.2134
-3.4999
-5.11976
8.61966
-5.90792
5.02243
-9.0953
-10.8745
0.111411
10.7631
7.78099
1.44137
-9.22236
10.3655
-10.2076
-0.157883
2.8941
-9.73451
8.13032
3.3855
4.66623
4.37608
-9.04231
9.42474
-0.0884039
-1.58865
-5.9457
6.2795
0.237371
1.57354
6.97209
-8.54563
-9.78007
10.0296
-1.81496
-8.21464
7.30862
4.48526
-11.7939
-7.64651
12.6192
12.2225
-4.74021
-7.48228
-3.71317
-12.8906
16.6038
0.39178
0.480987
-0.872767
6.49784
-12.6003
6.10243
10.4659
-8.97644
-1.4895
-10.5038
2.31359
8.19025
-11.6018
0.163684
1.08791
0.155716
11.2156
-3.56699
-7.64858
3.89925
6.65779
-2.74512
9.24296
0.571378
-11.0752
-0.50342
-7.05813
6.15093
0.907195
-7.54625
-4.61817
-0.743646
-2.15206
-15.8289
17.621
-1.79214
-9.30639
8.72371
0.582679
-3.82025
-7.09801
5.76668
9.62195
0.352764
0.746145
-11.3838
11.5994
-9.20886
-13.7369
8.01091
5.72594
-3.77839
15.6258
5.73643
6.48607
3.22491
-9.77197
1.89785
-10.6165
3.38223
7.23428
-3.99877
-10.2348
11.0903
-0.855495
-6.5439
-2.4427
2.85984
-8.03452
-8.86203
8.33295
0.529086
-2.53313
-5.51313
7.13848
-8.61522
8.61522
-0.401684
-8.46035
9.9189
4.4197
4.29411
-10.3407
6.04662
9.05094
8.78657
-8.86996
0.0833912
-5.00082
5.80162
-15.0155
4.85136
3.20486
7.70291
9.00271
-8.61151
-2.70284
-11.3737
6.26227
5.11148
-6.53222
-2.63167
10.4117
-10.4117
9.91131
-4.21106
-5.70025
-1.94258
6.89387
-8.21835
7.09636
1.12199
-9.53652
9.53652
7.15754
3.42401
3.03393
4.93907
-7.97299
0.34581
-0.584426
7.01832
-5.47315
6.60687
-9.35592
3.58108
7.34349
-1.82501
-5.45295
-10.316
11.3392
-1.0232
8.46269
1.44862
9.08245
0.368518
-9.45097
-11.9224
8.99421
5.12043
-15.3462
-10.7573
5.75232
-7.70312
-4.21924
8.9219
-1.70898
-8.93775
11.3177
-16.4326
8.82179
3.29181
-12.0387
8.74691
7.86457
-5.86203
-7.16614
9.89116
-9.31565
2.50846
6.8072
-11.2583
-2.47856
-3.77935
-2.99409
6.77343
5.38525
6.77746
9.40837
-1.97846
2.30193
7.10644
-2.5492
6.32536
-2.69616
8.39326
8.67617
-8.09244
-0.583728
-7.72572
-3.20313
-3.60597
8.2722
-3.51457
14.0774
3.52099
-10.1166
0.653755
2.73934
-6.51869
-9.82583
3.5887
7.27437
1.06938
2.69132
2.47954
-5.74738
3.26784
-9.40189
0.44962
8.95227
-4.18528
7.83531
-12.1369
8.02333
4.11355
-11.7324
-0.404456
10.397
0.370023
9.2837
-7.743
-1.5407
10.8684
-2.72958
10.2781
-10.2781
-7.72884
-1.58682
1.1386
6.45801
-7.59661
12.2615
7.89057
-6.75197
0.851109
7.78382
-8.63493
3.84844
5.03512
10.7469
-5.06319
-5.68369
-8.57432
0.828743
-3.1207
-5.70167
-9.84461
12.0524
-2.20775
-3.9813
-10.7336
-3.07568
10.38
-0.769077
6.28792
-9.47212
3.1842
-7.01033
-4.11448
11.1248
7.97987
-0.272323
-7.70755
1.57181
8.26723
8.3715
0.222314
5.99645
-5.94822
-4.50539
-10.9075
4.34315
6.56435
-8.32312
7.10787
-6.96345
-7.88056
-3.02694
-9.06915
7.18102
1.88813
9.39387
-6.30486
-3.089
-9.64562
8.67148
0.974142
7.92545
0.136537
0.359375
-0.253067
8.211
-0.294583
0.294583
6.74519
3.70261
6.15615
-10.7137
4.5576
-0.417149
-5.62731
9.32841
-8.24312
-1.08529
4.81911
4.5093
5.68418
5.87002
-11.5045
-4.92814
0.307407
0.896255
-10.1472
4.34036
5.80685
-7.92959
-2.07117
10.0008
8.42952
1.60008
-8.42055
-0.806134
-0.298951
-8.38712
5.67139
3.52738
-9.19877
-0.571237
-4.48523
5.05646
10.6215
-4.15767
-6.46382
0.792773
-9.81208
9.76428
2.0365
3.96893
5.79535
8.88297
-4.48729
-4.39567
2.51836
6.42741
11.8637
-11.8637
-13.6708
10.09
4.98602
-15.874
10.1599
5.71406
-9.15425
8.32943
0.82482
9.42876
0.858631
-10.2874
4.75972
-7.7538
-8.39645
1.8836
6.51285
9.28715
-1.07989
-8.20726
10.313
-3.73643
8.64577
1.6672
3.40236
7.64576
-1.77594
8.54554
1.11528
-9.66082
0.178049
9.21582
7.37365
-0.628468
8.72655
-3.59871
-5.12784
-0.00596851
-0.169994
-1.91613
-8.08274
1.04796
-7.84837
6.80041
9.7196
-11.3949
5.88582
-7.92103
0.508663
7.41237
-9.42882
1.50779
-10.1653
-3.96868
14.134
-2.20506
10.7506
3.44742
0.588717
8.09081
-8.67953
6.32883
0.306871
-8.00475
8.59347
-6.75005
2.81586
-5.9847
-2.33027
8.31497
1.78822
-7.77292
-12.868
11.9201
0.947959
7.85266
-6.57494
4.79297
-6.61797
9.81555
-8.67061
-1.14494
8.08083
9.10195
-3.75756
14.161
10.1229
-4.45149
4.95677
-2.3014
2.61264
6.40055
11.0152
-3.83134
8.20379
2.81141
-8.35986
9.27021
-0.910349
7.10806
0.675754
-7.78381
-7.93692
-2.19772
-1.11384
16.4303
-9.56353
-6.86679
-13.5119
13.0432
0.468709
-9.12632
-0.65375
0.311282
-9.82161
9.51033
-6.09101
-0.90606
6.35003
-9.45143
3.10141
-7.55425
11.3108
10.6125
-5.75816
-4.85433
-6.95085
4.00187
2.94898
9.05508
-5.85748
-5.3317
-4.6089
-5.94816
-4.80914
1.85137
-2.68683
-3.44293
9.61725
-6.17432
8.18206
-6.60851
10.8889
-10.8889
-8.39442
-0.768329
-13.078
8.12373
4.95428
-9.12382
-3.95419
6.09686
-5.8059
-0.290959
1.96328
7.0918
-7.98701
-1.47412
9.49966
1.02829
-10.528
0.569222
2.46535
11.9044
-6.93513
-4.9693
0.901451
-0.927095
0.0256443
6.95409
-5.05207
9.07254
-1.92679
-5.50099
-6.23144
-2.76919
-5.81423
8.13586
-8.13586
0.618357
8.95094
-9.56929
5.41755
-3.25715
-6.55072
9.02105
-2.63501
-8.5935
0.429935
2.99327
-2.42405
14.1933
-8.64612
-5.54718
7.4892
-8.87051
-11.0065
5.56563
5.44082
8.58553
-0.470914
-4.34046
-4.69045
-11.1835
-11.9101
9.31112
2.599
-9.63855
-1.23592
10.2425
-1.80045
0.563222
-0.563222
4.67969
5.7003
-4.89614
8.86015
-3.96402
-3.11486
-1.31902
8.91767
-7.59866
3.08296
7.86811
-7.83577
10.9213
-12.4233
-3.20182
6.04924
3.07672
-9.80041
-0.43769
3.4735
-8.14018
4.66668
11.5288
-3.38821
-8.1406
1.54657
-0.586144
-0.960427
0.824496
8.29216
9.72436
-10.2356
5.619
4.61663
-12.8522
12.8522
-2.71416
10.0228
-0.50596
-7.15206
-9.47879
10.4525
-0.973665
-3.27645
-6.83764
0.924534
-1.24261
0.731326
-9.22321
8.49188
-9.40126
-5.1758
3.46189
3.9043
-7.36619
-3.69232
4.77302
-2.36659
7.34344
6.30131
-0.204453
-0.707663
6.99559
9.83652
-9.83652
7.5401
-4.07822
-16.1519
11.2983
4.85357
-5.66377
-5.93326
10.1821
-4.24881
10.7158
-8.82363
-1.89221
5.17123
5.54461
-6.84195
8.00363
-1.16167
-14.3372
8.43925
5.89794
-5.44247
8.01153
-8.02609
2.58363
-5.85181
7.73541
11.013
-7.20687
-3.80611
-1.34349
1.34349
6.17376
-15.6966
9.52284
2.00878
-2.75243
8.70745
2.30554
8.18765
-10.9862
2.79851
2.33184
0.799055
-3.13089
8.93875
2.55221
5.17306
-5.17306
0.448229
7.20979
7.52253
4.38189
-9.88262
2.08704
7.79558
-8.18181
-1.5455
-8.40346
9.94896
7.79688
-6.7868
10.3428
-2.79852
-7.54432
-1.24395
3.94998
-6.05365
4.4575
8.95755
-5.09103
-6.41519
5.93361
-8.57905
2.64544
0.616159
0.177572
-0.793731
11.6655
-8.17336