/*--------------------------------*- C++ -*----------------------------------*\
  =========                 |
  \\      /  F ield         | OpenFOAM: The Open Source CFD Toolbox
   \\    /   O peration     | Website:  https://openfoam.org
    \\  /    A nd           | Version:  9
     \\/     M anipulation  |
\*---------------------------------------------------------------------------*/
FoamFile
{
    format      ascii;
    class       volVectorField;
    location    "0.5";
    object      U;
}
// * * * * * * * * * * * * * * * * * * * * * * * * * * * * * * * * * * * * * //

dimensions      [0 1 -1 0 0 0 0];

internalField   nonuniform List<vector> 
97292
(
(0.14418 -0.918181 0)
(0.0384856 0.891304 1.84017e-20)
(0.0824067 -0.992442 -3.059e-19)
(0.0203055 -0.958666 3.20624e-20)
(-0.101515 -0.943875 2.91545e-19)
(-0.0454322 0.88801 -2.09713e-21)
(0.0118422 -0.918359 -1.22535e-19)
(0.0263309 0.875964 -1.05008e-20)
(0.79132 0.593107 1.05408e-20)
(-0.0057153 -0.808797 1.25076e-19)
(0.300931 -0.868617 0)
(0.244132 -0.85065 6.89852e-20)
(-0.0818516 -0.829552 0)
(0.0840648 -0.978475 2.15219e-19)
(-0.0457318 -0.959737 -9.69184e-20)
(-0.0749128 -0.873636 7.09684e-20)
(0.0583341 0.825509 -1.47404e-21)
(0.766743 0.709329 -8.72259e-20)
(0.859475 -0.0556373 -9.87183e-20)
(0.306276 -0.912381 -3.89145e-22)
(0.0553007 0.732585 -1.84176e-22)
(0.045832 0.826711 -2.20958e-20)
(0.0463809 0.935155 -1.16677e-20)
(0.0244872 0.912615 0)
(-0.0408071 0.859232 -1.5609e-20)
(0.052369 0.882323 1.819e-20)
(0.0132045 0.975686 9.81338e-22)
(-0.0220738 0.974592 -2.9642e-22)
(0.0198526 0.811269 4.93424e-20)
(0.000961994 0.785376 1.57463e-20)
(0.608236 0.634787 -4.2285e-20)
(0.338941 0.895431 2.06422e-20)
(-0.0178482 0.965112 -1.11444e-21)
(0.890915 0.0859089 -8.82398e-20)
(0.302641 -0.972198 0)
(1.28451 0.695911 0)
(0.529259 0.908565 0)
(1.22841 0.88275 8.40171e-20)
(0.334579 0.733849 0)
(1.30578 0.73752 0)
(0.0190852 0.996033 0)
(0.0377297 0.896503 1.44104e-21)
(0.349792 0.676283 -5.65924e-20)
(-0.194297 -0.933692 1.73904e-19)
(0.106872 0.931262 0)
(1.14364 -0.23949 -2.96845e-20)
(1.02116 -0.450303 3.04733e-20)
(-0.0150144 0.865326 -1.81888e-20)
(0.0211892 0.976782 -1.47328e-20)
(0.024556 0.865827 0)
(0.00318319 -0.95676 0)
(1.08923 0.436838 1.07266e-19)
(0.0766886 0.24686 0)
(-0.0293412 -1.02794 7.02283e-20)
(0.645394 -0.926336 1.7283e-19)
(0.539744 -0.561675 3.28811e-20)
(1.40643 0.746094 -5.78746e-20)
(0.0866557 0.844184 0)
(0.0446088 -0.839047 -1.51109e-19)
(0.792058 -0.386898 0)
(-0.0620546 -0.990784 2.02355e-20)
(0.622063 -0.56075 3.21606e-20)
(-0.0219899 0.853558 2.04154e-21)
(-0.0531395 0.873432 0)
(-0.00419604 -0.994002 2.14219e-19)
(0.603131 -0.987408 5.00901e-20)
(-0.0545877 -1.01241 0)
(0.0744115 -0.908073 6.71342e-20)
(-0.00836753 0.81615 2.64878e-20)
(0.0706924 -0.00777888 -4.41111e-20)
(0.00248004 0.927084 0)
(-0.0709538 -1.01255 0)
(1.21424 0.0221147 0)
(0.0408655 -0.959408 9.4663e-20)
(0.0273683 -0.00972444 0)
(0.0899965 -0.914348 1.5691e-19)
(0.931024 -0.0120096 0)
(0.0181527 0.972352 -1.55013e-20)
(0.0581569 0.878688 2.2887e-20)
(0.300501 -0.752266 -7.28823e-20)
(0.0887666 0.956303 0)
(0.15875 -0.90133 -1.47451e-19)
(0.0177865 -0.77244 -6.37125e-20)
(0.0105832 0.94396 -2.95203e-22)
(0.236529 -0.993531 -5.20086e-23)
(0.431357 -1.07451 0)
(0.134174 0.125784 0)
(-0.0280591 0.971958 3.06547e-20)
(0.446166 -0.405432 0)
(1.13222 0.87959 2.99545e-20)
(0.023653 -0.0183717 -1.80172e-20)
(-0.00289094 -0.96436 -3.14934e-20)
(0.264351 0.0343415 0)
(0.224192 0.269601 -3.2319e-20)
(-0.0202666 0.921004 9.58919e-21)
(0.0744466 0.830995 -1.98187e-20)
(-0.0909613 -1.02068 -2.09864e-19)
(0.135287 -1.18231 5.75064e-20)
(-0.0719763 0.844797 0)
(0.550118 -0.421769 0)
(1.02554 0.297599 0)
(0.410081 0.828937 3.0119e-20)
(0.343964 -0.699462 6.12388e-20)
(0.113595 0.124642 0)
(-0.0646911 0.937325 7.3171e-21)
(0.469403 0.560178 -2.32207e-20)
(0.0120241 0.948385 2.7228e-23)
(1.19662 -0.0673738 9.01377e-20)
(0.140041 -0.967188 -1.67131e-19)
(0.579946 1.00886 5.88529e-22)
(0.546283 -0.479611 -8.62466e-20)
(0.0290838 -0.900695 -4.77426e-20)
(0.0598622 0.878277 8.54232e-21)
(1.00642 0.437611 0)
(-0.0246409 -0.975943 7.23192e-20)
(0.112041 -0.955334 4.3247e-20)
(0.0653582 0.891883 0)
(-0.00685999 -0.905185 8.08858e-20)
(0.0158614 0.908176 0)
(1.19576 0.227108 1.16443e-19)
(-0.12483 0.947162 -4.30977e-21)
(-0.0171453 -0.983349 0)
(0.0156033 1.05036 -1.51848e-20)
(0.128704 0.0781755 -1.98735e-20)
(-0.0352441 -1.02499 5.55394e-21)
(0.220812 0.632763 2.91208e-22)
(0.106921 0.0540687 -1.71183e-20)
(-0.0940247 -0.972505 0)
(1.34275 -0.0543259 0)
(0.197506 0.658454 -2.0829e-20)
(1.19668 0.659112 -2.12175e-21)
(0.0961427 0.802804 -1.41568e-20)
(0.0488958 0.941648 0)
(-0.0271944 0.805043 4.16726e-22)
(0.586089 -0.501705 -3.28666e-20)
(0.23029 -0.978274 0)
(0.00856272 0.943408 -3.40935e-20)
(0.88174 -0.416864 -7.11716e-20)
(0.15045 0.438478 0)
(0.265526 0.0439392 1.85175e-20)
(-0.0162999 -0.993059 -6.77951e-20)
(0.00698258 0.97522 2.12681e-20)
(-0.1132 -0.982516 1.46059e-19)
(1.02318 0.723463 0)
(-0.0150761 -0.955653 0)
(1.02945 0.683586 -1.49477e-20)
(0.269458 -0.955473 -4.02801e-20)
(-0.0642185 0.943958 -2.41561e-20)
(0.719962 -0.370966 5.30539e-20)
(0.0296635 0.880683 -8.69876e-22)
(0.11431 -0.788938 -2.3927e-19)
(0.0142919 -0.972682 9.41132e-20)
(0.0826784 -0.965677 1.64795e-19)
(0.420042 -0.95034 9.99553e-20)
(0.0065472 -0.999161 0)
(0.907788 0.740552 1.93435e-20)
(0.0706341 -1.1241 -5.86552e-20)
(-0.0629819 0.866108 -1.09975e-20)
(-0.0758722 0.947101 1.74488e-20)
(0.522362 0.543272 -2.31381e-20)
(0.0662012 -0.927698 -3.75489e-20)
(1.64604e-05 0.903888 -2.82824e-22)
(-0.0707135 0.843227 3.75178e-20)
(0.032458 -0.0118582 0)
(0.8835 0.766278 2.64105e-20)
(-0.079284 -0.808375 8.48768e-20)
(0.0887704 -0.915609 5.13447e-22)
(0.0339809 -0.0197399 0)
(0.12973 -1.10307 1.69419e-19)
(0.48263 0.586496 1.25426e-20)
(0.677568 -0.421514 -1.07289e-19)
(1.30893 0.846075 0)
(0.0746135 -0.94953 6.10201e-20)
(1.19398 0.307343 -8.35158e-20)
(0.00190739 0.912237 0)
(0.560782 -0.484 -1.17396e-19)
(1.08806 -0.450361 -8.79051e-20)
(0.748874 -0.415897 0)
(0.089552 -0.333455 -1.4032e-20)
(1.07171 0.68526 -5.98249e-20)
(-0.0273147 -0.984322 -1.58661e-19)
(1.48964 -0.367206 -9.65829e-20)
(0.0564803 -0.0420789 -2.05514e-20)
(-0.0369123 0.891877 -1.19226e-20)
(0.0146027 -0.951483 0)
(-0.00229096 -0.867499 0)
(0.0385473 -0.0328318 0)
(-0.0743358 -0.886285 5.68749e-20)
(0.0816508 -0.941858 6.61659e-20)
(0.104976 -0.911576 1.36716e-19)
(1.3756 -0.216877 -2.72264e-23)
(-0.0188668 -0.89857 1.15386e-19)
(0.0220994 0.876911 1.18107e-20)
(0.509191 0.505816 -2.63357e-20)
(0.00679627 -1.04313 9.88686e-20)
(1.2197 1.14413 3.03989e-20)
(-0.058903 0.922619 0)
(0.000535244 0.863258 0)
(-0.0161453 -0.962936 -2.55586e-19)
(0.406923 -0.528695 -1.44934e-19)
(0.827433 -0.455696 0)
(0.241172 -0.472081 0)
(0.019967 -0.974121 -8.93406e-21)
(-0.00761017 -0.920723 -1.49393e-19)
(-0.0415581 -1.00793 0)
(-0.0294004 -0.924768 9.7579e-20)
(0.988815 0.265078 0)
(0.105277 -0.707077 1.26749e-20)
(0.378197 -0.497686 -2.10684e-22)
(1.28279 0.192546 0)
(-0.0018007 0.88867 9.17088e-22)
(0.166521 0.863819 4.25482e-20)
(0.20634 0.877973 1.93227e-20)
(0.0121224 -1.01214 -4.64496e-20)
(1.02077 1.02123 0)
(-0.0737702 -0.971948 -1.76191e-19)
(-0.021623 0.835971 0)
(1.48284 0.121104 7.79455e-20)
(-0.024291 0.938877 0)
(-0.00358007 0.896424 0)
(0.0645669 -0.0108445 -5.39092e-21)
(-0.0663309 0.947364 -1.24422e-21)
(-0.0401725 0.914148 0)
(0.546647 -0.398726 4.85465e-20)
(0.887603 -0.56053 -4.97984e-20)
(0.0481809 0.87712 -3.58106e-21)
(0.0322882 -1.0092 -1.17836e-19)
(0.0432058 -0.900392 -4.98013e-20)
(0.0207765 0.988441 3.77588e-21)
(1.1308 -0.561918 0)
(-0.0381082 0.942444 0)
(0.0765593 -0.863561 0)
(-0.0514573 -1.03208 -1.37952e-20)
(0.635313 -0.37055 -1.08436e-19)
(0.710285 -0.369281 4.99282e-20)
(0.0120158 0.931159 5.0973e-20)
(0.842607 1.02103 1.61294e-20)
(0.0751621 0.983598 -4.95281e-20)
(0.129475 0.977732 3.33858e-20)
(1.08248 0.847282 -2.82807e-20)
(0.0493435 -1.0066 -1.6895e-19)
(0.00798193 -0.969411 -9.61226e-20)
(0.0663653 -1.0536 -7.63323e-20)
(0.00517526 0.95198 2.83469e-21)
(0.122206 -0.909726 0)
(0.856633 -0.654969 -2.74846e-20)
(0.584525 -0.806247 1.97192e-19)
(-0.0650498 -1.01931 -7.73322e-20)
(0.101088 0.428273 -1.42563e-20)
(-0.0528418 -0.881701 -1.43873e-19)
(-0.0181036 -0.884516 0)
(0.0819068 0.893355 0)
(0.538318 0.539085 -5.68934e-21)
(-0.0815673 -0.99642 -7.47486e-20)
(0.0526124 -0.859652 -1.20327e-19)
(0.15293 -0.905508 9.55878e-20)
(-0.102148 0.9911 0)
(0.0614289 0.466678 0)
(1.44759 0.165329 -7.66259e-20)
(-0.110951 0.939334 2.20503e-20)
(-0.0643679 -1.0259 0)
(0.0205953 0.877448 0)
(-0.017066 0.934883 0)
(0.54782 -0.521543 0)
(0.510288 0.951342 0)
(0.0145737 -0.921585 0)
(0.0152674 -0.948464 1.22703e-20)
(0.127163 -0.961949 -4.59625e-20)
(0.0108298 -0.978662 0)
(-0.00645991 -0.982928 4.21441e-20)
(0.0125602 0.991409 1.72141e-20)
(1.18445 0.563079 5.8345e-20)
(0.0668718 0.903792 -2.87559e-20)
(0.00192914 -0.856366 0)
(0.0133504 -0.939821 -9.11651e-21)
(0.411806 -0.732545 -6.00124e-20)
(1.02661 0.0614935 9.38844e-20)
(0.0575731 -1.06677 1.6687e-19)
(0.02062 0.957996 2.81073e-22)
(1.10365 0.362945 -6.93774e-20)
(1.19081 -0.0267143 1.09193e-19)
(0.703416 0.89492 -3.61753e-20)
(0.00590605 0.888196 1.18108e-20)
(0.62399 0.698554 -1.52841e-20)
(0.272708 0.625279 -5.94972e-20)
(-0.0296967 0.93893 -2.13319e-20)
(0.0565841 0.878636 -1.47239e-20)
(0.0198437 0.816714 0)
(-0.059816 0.866824 1.2272e-20)
(-0.0763093 0.932401 -7.02395e-22)
(0.0572482 0.840042 0)
(0.690519 -0.444542 0)
(0.012511 0.894945 -2.44534e-20)
(0.544087 0.660936 4.48485e-20)
(1.29827 -0.290046 9.13883e-20)
(0.0854837 -1.03411 -3.15325e-20)
(0.0344215 -0.957783 0)
(-0.0263553 -0.842076 -1.97703e-19)
(-0.0656712 -0.96689 -1.11315e-21)
(0.321886 0.698589 5.64087e-20)
(0.744785 -0.304114 -1.38489e-20)
(0.0438322 -0.840386 7.98257e-20)
(0.015241 0.869286 -9.47516e-21)
(0.0157251 -0.864753 -1.399e-19)
(-0.005624 0.936179 -9.27579e-22)
(0.663787 -0.840292 -3.52013e-20)
(-0.045168 0.933884 0)
(0.158784 0.948191 0)
(0.0501282 0.854372 -7.50442e-21)
(0.245707 0.760518 4.3266e-20)
(-0.0385277 0.931237 2.31647e-21)
(0.0451514 0.812842 0)
(0.322716 0.879937 0)
(0.0501565 -0.0143648 0)
(1.37507 0.0314744 -1.16229e-19)
(0.0831737 0.982882 -3.36465e-20)
(1.32608 0.110079 3.71616e-20)
(-0.0186096 0.828716 0)
(0.479161 0.34443 -4.50094e-20)
(0.080952 0.850538 -2.1776e-20)
(0.600597 -0.966079 -2.86993e-20)
(1.16033 0.155858 0)
(0.0570252 -0.00796131 0)
(0.217539 -0.604463 2.34828e-20)
(0.0754758 -0.887949 -2.0421e-19)
(0.00307888 -0.970073 0)
(0.0314693 -0.663978 -1.98628e-20)
(1.14963 0.0729297 -4.74525e-20)
(1.16147 0.248972 -1.20104e-19)
(0.0195793 -1.00224 4.37952e-20)
(-0.0325545 -0.977665 -1.80091e-19)
(0.0139111 -0.989009 -6.24714e-20)
(-0.0649039 -0.969833 -7.60022e-20)
(-0.136085 -0.943761 2.19288e-19)
(0.0378477 0.0306974 -4.94519e-20)
(-0.0280019 0.884528 0)
(0.063842 0.960375 -8.70493e-21)
(-0.0289506 -0.872059 1.67681e-19)
(0.0390227 -1.01018 2.02093e-19)
(-0.0238283 0.746025 1.97917e-20)
(-0.0304308 0.964627 -8.14744e-22)
(0.065017 0.925131 4.05466e-21)
(0.0514657 0.290073 2.60694e-20)
(-0.0142228 1.05241 1.32831e-20)
(0.000720985 -0.920857 -1.03533e-19)
(-0.0235748 0.817408 0)
(0.0213979 0.920849 -1.45083e-20)
(0.0503415 0.938606 0)
(-0.039997 -0.888773 5.55614e-20)
(-0.059391 -0.951062 -2.85129e-21)
(0.0787961 -0.957205 1.22785e-19)
(0.379014 -0.816487 0)
(0.160899 0.941254 3.52109e-20)
(0.0115132 -0.960627 -6.78687e-20)
(-0.0299189 0.838841 8.14657e-23)
(-0.0381446 0.756565 -6.16989e-21)
(-0.00407751 -0.896188 0)
(-0.0517948 0.876495 -1.33724e-20)
(-0.183495 -0.774994 2.00077e-19)
(-0.0992376 -0.839627 -6.2925e-20)
(0.153143 -0.942738 -7.34333e-20)
(-0.0451146 0.877638 8.52513e-21)
(0.047253 0.923329 -9.81765e-21)
(-0.101813 -0.925682 0)
(-0.016872 -0.925943 2.75275e-20)
(0.0666633 -0.916791 7.02873e-20)
(0.47943 -0.572876 1.85954e-19)
(0.00846292 -1.04782 2.02387e-19)
(0.150946 -0.169571 -4.9241e-20)
(0.314193 -0.659525 4.99311e-20)
(0.90735 -0.0513565 0)
(0.0169302 0.924009 1.91704e-21)
(1.34159 -0.0295431 5.07441e-20)
(-0.0178874 0.916884 -1.69738e-21)
(-0.0097079 0.880947 -6.90361e-21)
(0.290399 -0.672678 0)
(0.978143 -0.677584 0)
(0.483764 1.04455 -3.38083e-20)
(-0.0266692 -0.966526 0)
(0.044661 -0.840992 1.06284e-19)
(0.190091 0.589645 0)
(-0.186696 0.985373 0)
(0.721771 -0.273564 0)
(1.11417 0.158325 -1.20071e-19)
(0.0461957 0.918696 -1.20113e-20)
(0.130135 0.663684 -7.06603e-22)
(-0.012514 -0.893359 -2.5588e-20)
(0.13268 -0.998759 -8.24753e-20)
(-0.0349568 -0.965471 5.84154e-21)
(0.056097 -0.00250703 1.88959e-20)
(0.00668281 0.880148 7.11692e-21)
(0.107493 0.628769 0)
(-0.0352204 -0.771827 0)
(-0.0267456 0.88221 -1.61508e-20)
(-0.0165535 0.922372 7.59234e-21)
(-0.0125644 -0.965781 0)
(1.15749 0.777264 4.13637e-20)
(0.0583564 0.947636 2.01627e-21)
(-0.0295602 -1.00799 -7.83575e-20)
(-0.0451151 -0.970195 0)
(-0.0376135 0.943514 0)
(0.0376753 -0.97302 -2.2163e-19)
(0.334814 -1.01751 1.67551e-19)
(0.683326 0.73242 -3.8925e-20)
(0.510078 0.721973 0)
(0.119974 0.862448 -4.05488e-20)
(-0.136739 0.980417 7.3234e-22)
(0.41614 -0.919641 -5.45844e-20)
(0.0104322 0.858075 -6.1372e-21)
(-0.0789718 0.916512 -2.46668e-21)
(0.0708274 0.140353 0)
(1.31483 0.632187 0)
(1.35137 0.68408 -3.91867e-21)
(0.501003 0.365529 3.37223e-22)
(-0.00294235 -1.01991 -7.55738e-20)
(0.0665821 0.910787 -2.22311e-20)
(0.835357 -0.713824 0)
(0.00415022 -0.98671 -1.39929e-19)
(-0.0610671 -0.866975 -3.72264e-20)
(0.0518293 0.115354 -9.98691e-21)
(0.636435 1.05864 -2.27613e-20)
(-0.0608765 0.939012 0)
(0.0094413 -0.823206 -6.40179e-20)
(0.210823 -0.663601 1.09335e-24)
(0.0106742 -0.965496 -1.38198e-19)
(-0.0739633 -0.9985 -4.30476e-20)
(0.302227 0.218819 2.63979e-20)
(1.269 0.563533 -7.5875e-20)
(0.287652 -0.845017 9.6232e-20)
(0.0470486 -1.03326 0)
(0.424633 0.210919 2.37496e-20)
(1.23553 0.961127 3.51547e-20)
(1.36747 0.552866 5.05171e-20)
(-0.0528841 -0.978798 8.35834e-20)
(-0.000630336 -0.781574 -2.72754e-19)
(0.120575 0.263889 -2.75562e-20)
(0.0516431 0.904884 0)
(0.110852 0.726026 7.6394e-21)
(-0.0395022 0.933271 -3.3853e-20)
(-0.0189068 0.827087 3.06363e-20)
(0.0458868 0.899261 -4.60191e-21)
(0.803529 -0.255078 1.53647e-19)
(0.237231 -0.738423 -1.27732e-19)
(0.0264034 -0.93552 7.07396e-20)
(0.267075 -0.841354 1.3421e-19)
(1.30794 0.131629 0)
(0.132612 0.0973471 -2.5476e-20)
(0.059353 -0.95043 1.14231e-19)
(0.0149022 -0.780362 1.20543e-20)
(0.68912 -0.863579 -6.38114e-20)
(0.187023 0.688411 1.1711e-20)
(-0.0824655 -1.05615 0)
(1.40686 -0.304376 0)
(1.27448 0.881734 3.99733e-20)
(1.15374 -0.525523 9.33921e-20)
(0.0128237 0.886129 1.64732e-20)
(0.0202535 -0.911048 -2.23925e-19)
(1.06034 -0.722963 1.04288e-19)
(-0.0228097 0.907105 3.85313e-21)
(-0.209968 0.886022 9.00599e-21)
(0.0631678 0.751394 7.09263e-24)
(0.067605 -1.00569 1.38827e-19)
(0.0046573 0.924507 0)
(0.171222 0.0671321 1.06505e-20)
(0.0583681 0.970582 1.68482e-20)
(-0.0325757 -0.971338 8.89914e-20)
(0.0244407 -1.00053 0)
(0.987942 0.688198 2.72338e-21)
(0.139175 0.0974972 2.30584e-20)
(0.0254679 0.0331493 3.33545e-20)
(-0.0742086 0.862783 2.47493e-20)
(0.431197 -0.650378 0)
(-0.149929 0.969298 -8.00797e-21)
(-0.0116611 -0.882707 8.54886e-20)
(0.0982906 -0.969827 0)
(0.151724 0.0479896 3.15423e-20)
(0.00491508 -1.03752 6.43157e-20)
(-0.062363 -0.957189 0)
(0.00733995 0.95455 -1.96594e-21)
(1.23264 0.0259794 3.13077e-20)
(-0.0582897 -0.983255 1.36412e-19)
(-0.0257468 -0.96266 1.99499e-19)
(1.04452 0.125261 -4.89393e-20)
(1.2215 0.153069 -5.53418e-20)
(-0.0093454 0.915306 3.43474e-21)
(-0.233229 -1.035 0)
(-0.0225372 0.955821 -1.30311e-21)
(-0.107009 -0.899755 -1.01184e-20)
(-0.117805 1.02854 0)
(0.0515103 0.959179 -3.51548e-23)
(1.0784 0.108048 1.13944e-19)
(0.143819 -0.172203 3.15763e-20)
(1.15649 0.199652 2.34932e-20)
(-0.0507282 -0.986959 -6.42454e-21)
(-0.0341796 0.927764 5.32678e-21)
(-0.00229455 -1.00134 0)
(0.420698 0.672542 2.57384e-20)
(0.0152491 0.945446 2.28417e-22)
(0.0475325 -0.930178 6.1995e-20)
(0.0534878 0.949176 1.56244e-20)
(-0.00984652 0.884108 0)
(0.0142223 -0.855322 6.27081e-20)
(0.0601128 -0.880155 0)
(0.416888 0.376292 -2.71867e-20)
(0.190074 -0.0425347 0)
(0.413491 0.385432 2.75576e-20)
(0.119897 0.209481 -1.87037e-20)
(-0.0288401 -0.957564 1.97388e-20)
(0.0212816 -0.918732 -1.07773e-19)
(1.10927 0.0413582 -3.73589e-22)
(-0.0311429 0.849236 0)
(0.0132548 0.918424 -1.9685e-20)
(-0.0962902 -0.961256 -4.40046e-20)
(0.034312 0.841425 -1.35667e-20)
(0.44619 0.982966 2.31825e-20)
(0.0792374 0.934567 0)
(0.0411113 -0.963488 -1.15549e-22)
(0.0530053 1.03653 -6.25239e-22)
(-0.127167 0.874114 0)
(0.51192 -0.505744 0)
(0.0217031 0.978554 1.80227e-20)
(0.030193 -0.973876 1.52344e-19)
(0.0188458 0.902902 1.23319e-20)
(0.0527669 0.924987 1.46935e-20)
(-0.0110334 0.93217 -4.30931e-20)
(-0.0106492 -0.974994 3.86866e-20)
(0.794348 -0.358889 -6.52147e-20)
(-0.136031 0.871191 -6.49247e-21)
(0.735773 0.896122 2.43512e-20)
(0.0313999 0.0240124 8.01511e-20)
(-0.00155154 0.934494 1.66277e-23)
(0.0476459 0.76438 0)
(0.0783999 0.859617 5.27712e-21)
(-0.0538178 0.916823 7.2508e-21)
(0.0436064 0.92347 -1.43269e-20)
(-0.0456032 -0.857752 -4.05608e-20)
(0.736805 0.825203 0)
(0.0584453 0.220096 0)
(0.798212 0.952592 3.77339e-20)
(0.605239 -0.790074 5.65573e-20)
(0.0282046 -0.993308 0)
(0.107543 0.806748 -1.16484e-20)
(-0.0134604 -1.09195 0)
(1.19356 -0.473804 6.26204e-21)
(-0.0912312 -1.00954 0)
(0.100268 -0.902767 -7.45442e-20)
(-0.0189296 0.844892 1.0686e-20)
(0.266102 -0.885634 4.35328e-20)
(1.03645 0.804375 -1.38762e-20)
(0.00958765 0.861357 2.2658e-22)
(0.276147 0.119059 0)
(0.461625 -0.709484 -7.18751e-20)
(0.0256522 -0.860408 -9.10059e-20)
(0.0819273 0.861412 2.72895e-20)
(0.0312852 -1.00563 0)
(0.519907 -0.87977 -1.70338e-20)
(0.02412 0.943467 2.46995e-20)
(0.0977542 -0.893062 -9.07894e-20)
(0.0201354 -0.987963 0)
(0.0436638 0.861716 0)
(0.227329 -1.14087 4.48599e-20)
(0.0044747 0.896543 0)
(-0.145716 -0.858366 2.23259e-20)
(0.184765 -1.01572 -1.27193e-19)
(0.0118039 0.90986 -2.31003e-20)
(0.184129 -1.04101 9.67304e-20)
(-0.094102 1.09742 -2.55689e-21)
(0.0391841 -0.0228387 0)
(0.0616108 0.872732 0)
(0.383975 -0.335681 5.37539e-20)
(0.0546129 -0.0202012 0)
(0.0735378 0.80087 -2.12168e-20)
(0.0436543 1.06333 -1.99368e-21)
(0.10939 0.129125 0)
(0.0339957 1.01169 8.11074e-21)
(1.13624 1.06229 6.55774e-20)
(0.428448 0.860532 6.80533e-20)
(1.55267 0.31079 0)
(1.1467 1.00501 0)
(0.013438 0.831786 9.68632e-21)
(-0.0873888 -0.91638 -5.64027e-22)
(-0.119216 0.737457 3.84736e-22)
(-0.0308318 0.886533 -2.9852e-21)
(0.111022 0.866869 0)
(0.0696344 -0.0153785 4.16723e-20)
(0.0141877 0.79647 0)
(-0.0457249 0.93766 0)
(1.20938 0.0718165 -1.24602e-19)
(-0.0489849 -0.980574 0)
(-0.0195521 0.846002 1.41083e-20)
(0.0480479 0.783462 0)
(0.0210092 -0.912151 1.59716e-19)
(0.112689 0.103646 0)
(0.990314 0.53625 -3.04299e-20)
(0.314795 0.583355 -1.05277e-20)
(1.15826 -0.582386 -1.34143e-20)
(1.01319 0.725959 9.69006e-22)
(0.61223 -0.946623 -6.4201e-20)
(0.568072 0.913315 0)
(0.432378 -0.668381 0)
(0.524962 -0.443416 7.17472e-20)
(0.243089 -0.884563 0)
(0.86884 0.874485 -6.62042e-20)
(0.739787 -0.152872 -1.06199e-19)
(1.02587 0.307586 -4.79296e-20)
(0.11344 0.849686 -1.92801e-20)
(0.0174594 -0.16734 -2.5798e-20)
(0.019838 0.84702 6.44007e-21)
(0.048223 -0.987681 1.03221e-19)
(0.295555 -0.702071 -7.36358e-20)
(0.000577983 -0.987958 2.13141e-19)
(0.0825032 0.741593 2.66795e-20)
(0.0820553 -0.658052 6.72956e-20)
(0.0606355 -0.921879 0)
(0.189303 0.00396146 4.72601e-20)
(-0.0583163 -0.874644 -2.05124e-19)
(-0.0850547 -0.876749 0)
(0.0130419 -0.906675 6.02236e-20)
(1.00681 0.0631578 -5.29508e-20)
(0.054087 -0.0808409 0)
(0.0982458 -0.72114 -3.84962e-20)
(-0.0351517 -0.934514 -1.22712e-19)
(-0.0157347 0.68223 4.29696e-20)
(-0.0227427 0.92451 -1.78363e-20)
(0.141914 -0.0336789 4.66271e-20)
(0.00614002 0.870802 0)
(-0.0139082 -0.969415 -4.10711e-22)
(0.0559846 -0.911856 0)
(-0.0194167 0.871732 0)
(0.487597 -0.546046 -3.37747e-20)
(0.217435 -0.545256 1.36074e-19)
(0.954605 1.00763 0)
(1.15913 -0.0723591 -6.53424e-20)
(0.0280109 1.07562 -5.97088e-22)
(0.044758 0.911087 -8.65479e-21)
(0.0288699 0.14722 -4.26361e-20)
(0.740117 -0.458824 -1.24305e-19)
(0.0667117 -0.960007 0)
(0.234792 -0.864805 -4.19226e-20)
(0.0141671 0.0711979 -2.24368e-20)
(0.0737513 0.796723 0)
(0.00599167 -1.01714 -7.8792e-20)
(0.140051 -1.02252 -7.02e-22)
(0.0295143 -0.97434 -5.08023e-20)
(0.0673456 -0.875601 -4.6067e-20)
(-0.0150861 0.882579 1.17435e-20)
(0.0785131 0.898306 7.55602e-21)
(0.358114 -1.18653 -7.34427e-20)
(-0.0030585 -1.01617 5.32135e-20)
(0.044031 0.00120655 -4.35846e-20)
(-0.0535706 0.900574 0)
(0.0231273 0.00656743 3.7338e-20)
(-0.000925811 -0.923492 3.7498e-20)
(0.482034 -0.795006 0)
(0.0907697 -1.03665 -3.72887e-20)
(0.0851933 0.856359 8.43295e-21)
(1.39392 -0.0495433 3.78736e-20)
(-0.0660516 0.937452 -4.92306e-21)
(-0.000561617 0.961773 -2.49443e-20)
(0.0691439 0.921016 2.37101e-20)
(-0.0159504 -1.01299 -1.59888e-19)
(0.289001 0.1394 0)
(-0.112234 -0.927559 -1.65549e-19)
(0.143334 0.00826301 2.45679e-20)
(0.0149455 -0.94422 0)
(0.526672 -0.387027 6.9676e-20)
(0.515692 -0.363868 -5.18539e-20)
(0.988279 -0.0432537 0)
(0.0111075 0.924113 1.53473e-20)
(0.629168 -0.982929 7.36829e-20)
(0.0665768 -0.846377 -1.41258e-19)
(0.104267 -0.925074 0)
(0.0132636 -1.01069 -1.01882e-19)
(1.52481 -0.0344219 0)
(0.178438 -0.231113 4.40755e-20)
(0.0355617 0.962117 1.7224e-20)
(-0.0317601 0.915911 0)
(0.0510779 0.978209 0)
(0.0271143 0.948673 -1.05333e-20)
(-0.0377071 -1.03045 -5.85535e-23)
(0.456356 -0.783165 0)
(-0.05192 0.846165 0)
(0.0612839 -0.956646 -8.37566e-20)
(0.127846 0.0294183 0)
(0.124241 0.706611 -5.32172e-20)
(0.0090232 -0.968044 -2.37417e-19)
(-0.0437743 -0.998397 2.06796e-20)
(1.23707 0.555494 0)
(0.108669 0.0143038 0)
(-0.0866949 -1.06286 1.31972e-19)
(0.0267712 0.988105 -5.85298e-21)
(-0.0207686 -0.983216 1.49031e-19)
(0.813691 0.614715 3.67674e-20)
(0.318782 -0.741672 0)
(-0.0284448 -0.89749 0)
(0.016131 0.955575 0)
(-0.026859 0.878444 -1.94622e-21)
(0.709557 -0.64557 -1.52496e-20)
(-0.0551038 0.866307 0)
(0.0464876 0.363398 0)
(1.13063 -0.0206076 -6.42255e-20)
(0.0644222 -0.969068 -1.55223e-19)
(-0.136554 -0.953106 1.54205e-19)
(0.014347 -0.920759 0)
(0.0341577 0.369113 -2.50599e-20)
(0.0369748 1.04392 0)
(1.0481 -0.0274742 1.30346e-19)
(0.0962293 0.0045505 -3.77561e-21)
(0.00941411 0.00638291 1.19626e-20)
(-0.00711915 -0.938563 1.44695e-19)
(0.571234 -0.487859 1.43064e-19)
(0.0396376 0.307871 -2.80582e-20)
(-0.0334551 0.919877 1.8766e-23)
(0.903734 -0.32922 1.21091e-19)
(0.674569 0.838301 1.41204e-20)
(1.03377 -0.0163137 6.10776e-20)
(0.0153191 0.758612 -1.05128e-21)
(-0.00099587 0.729433 -2.92e-20)
(0.0639219 -1.04738 -2.29614e-19)
(-0.143286 0.89057 0)
(0.354363 -0.483639 1.82469e-19)
(0.00555628 0.842591 -1.81533e-20)
(-0.0180878 0.829912 3.34266e-22)
(0.0542812 -0.997634 8.61614e-20)
(0.0427619 0.976357 -1.32161e-20)
(1.38295 -0.617203 1.00562e-19)
(0.129557 0.0717981 0)
(0.0404596 -0.950932 -2.27214e-22)
(-0.034835 -0.976308 -4.71878e-20)
(0.0122091 -0.916813 0)
(0.567363 0.779385 1.28052e-20)
(-0.0109158 -0.925619 -6.54595e-20)
(0.731708 0.938088 0)
(0.00343563 -0.962367 0)
(0.0308058 0.765687 0)
(0.102903 -0.954188 9.14681e-20)
(0.26536 -0.946469 3.79121e-20)
(-0.0211128 -0.9732 3.36315e-22)
(0.0273552 0.988847 0)
(0.0182665 0.00295839 8.97618e-22)
(0.762857 -0.578458 1.27953e-19)
(1.01821 0.071203 6.4006e-20)
(1.35401 0.219104 -7.00158e-20)
(0.0507836 -0.922376 1.03784e-21)
(-0.0527438 1.00368 0)
(-0.126274 -0.870318 0)
(0.0697342 -0.986144 -5.27362e-20)
(-0.0308069 0.902412 0)
(0.323058 -0.570727 6.88856e-20)
(-0.0122067 -0.938848 -1.83977e-20)
(0.901196 0.575915 -2.15123e-20)
(0.00730444 1.00784 0)
(-0.0516457 -0.991554 7.13334e-20)
(0.223516 0.910069 1.56095e-20)
(-0.0825397 -0.918885 1.7847e-19)
(0.0655769 -1.03369 -1.55989e-19)
(0.0119298 0.89445 0)
(0.0485345 0.00303762 2.24469e-20)
(0.0467992 -0.954352 0)
(0.191713 -0.675405 -6.98973e-20)
(0.0559887 -0.912819 0)
(-0.103316 -0.91701 5.56198e-22)
(0.0512465 0.907086 -1.33831e-20)
(0.0704628 -0.937708 -3.92689e-20)
(1.11434 -0.265797 1.05171e-19)
(0.0743329 -0.930777 -9.06679e-20)
(0.0264215 -0.997191 8.25139e-20)
(-1.90453e-06 0.854435 3.35202e-20)
(1.19371 -0.154022 0)
(0.718272 -0.335436 -7.05809e-20)
(-0.00968232 0.982598 -8.84035e-21)
(0.0445524 -1.00666 6.30261e-21)
(-0.0572268 0.992683 0)
(-0.0430979 -0.965067 -1.87297e-19)
(-0.00294105 -0.978128 1.01496e-19)
(0.0223772 0.246713 -1.68453e-22)
(1.17491 0.436586 -5.8599e-20)
(-0.0709379 -1.01099 -9.79096e-21)
(0.0158823 -0.962613 -7.69862e-20)
(1.03762 0.125524 -9.94721e-20)
(-0.0735153 0.925758 0)
(0.517804 -0.462712 0)
(0.101591 0.685232 7.26813e-20)
(0.0437968 0.89603 -1.25645e-20)
(-0.165365 -0.814617 0)
(1.111 0.674785 6.66802e-20)
(0.0125887 0.921971 -2.11841e-20)
(0.0533544 0.815955 3.17563e-20)
(0.0142616 0.766955 0)
(-0.0165166 0.979566 -1.54097e-20)
(0.00956912 0.914572 7.21348e-21)
(0.57259 -0.75882 1.13644e-19)
(-0.0527884 -0.947856 7.44486e-20)
(1.3253 0.428784 0)
(0.135565 -0.945139 6.21905e-20)
(0.120255 -1.01921 0)
(0.019585 -0.83935 0)
(0.371175 0.596812 0)
(0.0260861 -0.885937 0)
(0.623002 -0.564011 -1.10554e-19)
(1.10817 0.117016 -5.43307e-20)
(0.385113 0.324867 0)
(0.645606 -0.321537 -5.27917e-20)
(-0.0298401 0.870135 -3.14877e-20)
(0.373458 -0.641967 -3.73954e-20)
(-0.0323992 0.833614 0)
(0.362856 0.515768 4.7369e-20)
(1.44584 0.389974 -4.6422e-20)
(-0.0449723 0.905699 1.08101e-20)
(0.0175294 0.939898 -1.73876e-20)
(-0.00738713 0.951768 4.08147e-23)
(-0.0934442 0.923965 0)
(-0.0112601 -0.915969 0)
(0.0369264 0.993332 1.99979e-20)
(0.54356 -0.471106 5.12111e-20)
(0.0676097 0.943747 2.88169e-22)
(0.571502 -0.866459 0)
(0.0272173 -1.01454 1.57296e-19)
(0.578004 1.01853 1.07948e-20)
(0.956107 0.779687 6.31792e-20)
(-0.0426513 -0.903876 2.2155e-20)
(0.0111015 -0.88101 -7.62226e-20)
(1.43485 0.490392 0)
(0.100031 -0.994568 6.32611e-20)
(0.00378784 -0.981606 1.9079e-20)
(1.03163 1.07493 3.77208e-20)
(0.253025 0.741576 4.17167e-20)
(1.14244 1.07616 2.59116e-20)
(-0.0618651 -0.990985 -7.10032e-21)
(0.105425 -0.938467 -3.57653e-20)
(0.141351 0.599073 1.00045e-20)
(0.0149301 0.832589 -7.6982e-23)
(0.0872147 1.00514 -1.42753e-20)
(1.07234 0.438205 0)
(0.64452 0.060132 4.66337e-20)
(-0.0361998 0.833376 0)
(-0.0707838 -0.952209 -1.33849e-19)
(0.734114 -1.00363 0)
(0.289466 0.621305 -2.34622e-20)
(0.979677 1.1056 4.48338e-22)
(0.248317 -0.107393 -4.12827e-20)
(0.560528 -0.42932 0)
(1.0572 0.231275 1.30693e-19)
(-0.0471923 0.906875 -1.46035e-21)
(0.0151646 -0.995786 2.5754e-20)
(1.13403 0.152169 -8.39037e-20)
(0.0476271 -0.112149 4.25644e-20)
(0.0781071 0.509725 0)
(-0.268046 0.766735 -3.86477e-22)
(0.0354217 -0.986842 0)
(1.32823 0.499162 -3.24491e-20)
(-0.0686121 -0.986956 -2.32226e-21)
(-0.16893 -0.851395 -1.78015e-20)
(0.0137171 -0.985972 8.24494e-20)
(-0.00170598 0.937237 -1.49914e-20)
(0.796147 0.346228 2.67947e-20)
(1.16773 0.642277 -6.87007e-20)
(0.0255857 -0.00157225 0)
(0.00434819 -0.945456 0)
(0.0458016 -1.03945 -9.17503e-20)
(1.04112 0.558805 -4.26315e-20)
(0.0428043 0.987644 -9.78567e-21)
(0.0208906 -0.925012 7.06966e-20)
(-0.00387151 0.958063 0)
(0.996826 0.172106 0)
(0.05889 -0.91757 -3.8275e-20)
(0.0184444 0.919288 0)
(1.19481 0.685368 1.40001e-21)
(0.0594729 1.01236 -1.68542e-20)
(-0.0137411 -0.936784 3.33421e-20)
(0.026583 0.831511 0)
(1.40617 0.307144 8.07272e-20)
(-0.00690409 0.844434 -1.72638e-20)
(0.729704 0.403593 -1.38295e-20)
(1.03254 1.04055 -7.89719e-22)
(0.106329 0.991137 1.85471e-20)
(0.0976986 1.00812 2.22534e-20)
(-0.00581038 0.945324 4.53734e-21)
(0.105235 -0.715734 -7.18405e-20)
(0.0445478 -0.807949 0)
(0.223819 -0.0829034 -4.19105e-20)
(0.0867574 0.775221 0)
(-0.00961045 -0.981959 1.36145e-19)
(-0.04297 0.834876 -3.00806e-20)
(0.375355 -0.482991 -5.83864e-20)
(0.1278 -0.991001 -2.17674e-19)
(0.345237 -0.451872 -6.42977e-20)
(0.037951 -1.00273 7.46703e-21)
(-0.0031326 -0.980786 -7.4567e-20)
(0.0098896 -1.01136 -7.60144e-23)
(-0.0196965 -0.93319 8.20992e-20)
(0.0409769 -0.961872 1.63209e-19)
(0.000673336 0.875883 -1.67926e-20)
(-0.00709857 0.89635 -3.61515e-21)
(0.144865 -0.858419 0)
(-0.0889626 0.943772 -2.51876e-20)
(0.105147 -0.954218 -1.02597e-19)
(0.163839 -0.149839 5.73623e-20)
(0.305055 -0.12022 3.9242e-20)
(0.517039 -0.505882 -6.9776e-20)
(0.0385073 0.586822 -4.81368e-20)
(0.252824 0.316578 1.36876e-20)
(0.64223 -0.38333 1.01271e-19)
(-0.00594059 -0.961615 9.68924e-20)
(1.1854 -0.00228321 -1.44447e-19)
(-0.0566761 0.933699 -3.56908e-21)
(0.0350836 -1.01555 2.07923e-20)
(0.800863 -0.339701 8.36805e-20)
(1.22125 0.782966 0)
(0.00248835 1.00507 0)
(0.0182558 0.917482 0)
(0.0500395 0.0291068 3.12813e-20)
(1.21192 0.283006 5.19184e-20)
(-0.00323686 -0.950319 0)
(-0.103574 -0.966058 6.17697e-20)
(0.0191647 -0.96612 -8.99134e-20)
(0.522855 -0.412448 0)
(-0.110427 -0.852505 -7.49972e-20)
(0.0313763 -0.885924 -1.62673e-19)
(-0.00764956 -0.935451 1.65828e-19)
(0.66566 -0.832249 -1.3062e-19)
(-0.0507733 0.936568 0)
(0.110755 -1.0522 6.82849e-21)
(-0.00503108 -1.00415 -9.01981e-20)
(0.0445488 0.715245 6.08265e-20)
(1.11811 0.545452 -3.30528e-20)
(0.166451 0.0833413 -2.79599e-20)
(-0.0429102 -0.841023 -1.35951e-19)
(1.09651 0.0616368 -7.17892e-20)
(-0.0586701 -0.959138 0)
(-0.00847955 -0.916481 0)
(0.611778 -0.0696713 0)
(0.100181 -0.868735 -7.15986e-20)
(0.0133907 0.903691 1.13678e-20)
(-0.00484598 0.856397 -4.28496e-20)
(-0.0395848 -0.968886 0)
(-0.0368595 0.975212 7.77067e-22)
(1.16271 0.563311 -6.61147e-20)
(0.0578577 0.917788 2.16126e-20)
(1.15719 -0.0707394 0)
(0.00124087 -0.879631 -9.74152e-20)
(1.09913 0.458671 -2.0238e-20)
(0.0726487 0.821909 -3.59843e-20)
(0.182351 0.689296 -4.66741e-20)
(1.10845 -0.243016 0)
(-0.0658841 0.940411 0)
(-0.0799427 -0.821554 1.28374e-19)
(-0.045211 0.933916 2.65564e-21)
(0.619111 1.17292 0)
(0.20606 0.256433 -1.60916e-20)
(-0.0792311 -0.768107 1.41801e-19)
(-0.0416504 -0.959777 -1.05363e-19)
(0.100338 1.02632 0)
(-0.0753691 -0.924426 0)
(1.12846 0.115167 -5.4124e-20)